LAMMPS (11 Aug 2017)
####################################################################################
# External variables that have to be passed on call
# Temperature 	= temperature of the system
# trjFile	= name of the .xtc trajectory file
# dataFile	= name of the .data input for Lammps
# nRand		= random number as seed for the velocity creation
# Timestep	= timestep in fs
# Eps		= LJ epsilon of mW C interaction
# Sigma		= LJ epsilon of mW C interaction
# nTimesteps	= number of timesteps to run
# nStride       = stride of thermo and trajectory output
# pass variables to the script via ${variable_name}
#####################################################################################

units real
dimension 3
newton on
processors * * *
boundary p p p
atom_style atomic
box tilt large
read_data liq.data
  orthogonal box = (-0.005 0.0045 0.008999) to (45.195 45.2045 45.209)
  1 by 1 by 2 MPI processor grid
  reading atoms ...
  3000 atoms


###################### MASS ######################

mass 1 18.015


###################### GROUPS ######################

group mW type 1
3000 atoms in group mW


###################### INTERACTIONS ######################

pair_style sw  # stilinger-weber potl
pair_coeff * * mW-mW.sw mW


###################### INTERACTIONS ######################

neighbor 2.0 bin
timestep ${Timestep}
timestep 10
min_style cg
run_style verlet


###################### COMPUTES ######################

compute mWtemp mW temp
thermo $(v_psStride*1000/v_Timestep)
thermo 500
thermo_style custom step time etotal c_mWtemp ke pe enthalpy temp press vol density cpu
thermo_modify flush yes


###################### FIX ######################

#fix wallz mW wall/lj93 zlo 0.001 0.5 2 5
#fix_modify wallz energy yes


###################### RUNNING ######################

dump d1 all xtc $(v_psStride*1000/v_Timestep) ${trjFile}
dump d1 all xtc 500 ${trjFile}
dump d1 all xtc 500 333-1/trj.xtc


###################### MINIMIZATION ######################

minimize 1e-13 1e-15 5000 50000
WARNING: Using 'neigh_modify every 1 delay 0 check yes' setting during minimization (../min.cpp:168)
Neighbor list info ...
  update every 1 steps, delay 0 steps, check yes
  max neighbors/atom: 2000, page size: 100000
  master list distance cutoff = 6.09869
  ghost atom cutoff = 6.09869
  binsize = 3.04935, bins = 15 15 15
  1 neighbor lists, perpetual/occasional/extra = 1 0 0
  (1) pair sw, perpetual
      attributes: full, newton on
      pair build: full/bin/atomonly
      stencil: full/bin/3d
      bin: standard
Per MPI rank memory allocation (min/avg/max) = 4.117 | 4.118 | 4.119 Mbytes
Step Time TotEng c_mWtemp KinEng PotEng Enthalpy Temp Press Volume Density CPU 
       0            0    1081442.9            0            0    1081442.9    2680077.2            0    1187019.7    92345.414   0.97182764            0 
     500         5000   -33648.094            0            0   -33648.094   -35297.219            0   -1224.5093    92345.414   0.97182764     6.997881 
     593         5930   -33651.026            0            0   -33651.026    -35278.87            0   -1208.7086    92345.414   0.97182764     8.859411 
Loop time of 8.85946 on 2 procs for 593 steps with 3000 atoms

75.1% CPU use with 2 MPI tasks x no OpenMP threads

Minimization stats:
  Stopping criterion = linesearch alpha is zero
  Energy initial, next-to-last, final = 
         1081442.87387     -33651.0257623     -33651.0257623
  Force two-norm initial, final = 5.79938e+06 0.0752938
  Force max component initial, final = 2.35806e+06 0.0170692
  Final line search alpha, max atom move = 1.90735e-06 3.25569e-08
  Iterations, force evaluations = 593 920

MPI task timing breakdown:
Section |  min time  |  avg time  |  max time  |%varavg| %total
---------------------------------------------------------------
Pair    | 6.6392     | 7.0077     | 7.3762     |  13.9 | 79.10
Neigh   | 0.12146    | 0.13999    | 0.15852    |   5.0 |  1.58
Comm    | 1.1224     | 1.5215     | 1.9206     |  32.4 | 17.17
Output  | 0.001383   | 0.0013975  | 0.001412   |   0.0 |  0.02
Modify  | 0          | 0          | 0          |   0.0 |  0.00
Other   |            | 0.1889     |            |       |  2.13

Nlocal:    1500 ave 1518 max 1482 min
Histogram: 1 0 0 0 0 0 0 0 0 1
Nghost:    2238.5 ave 2251 max 2226 min
Histogram: 1 0 0 0 0 0 0 0 0 1
Neighs:    0 ave 0 max 0 min
Histogram: 2 0 0 0 0 0 0 0 0 0
FullNghs:  43339 ave 44415 max 42263 min
Histogram: 1 0 0 0 0 0 0 0 0 1

Total # of neighbors = 86678
Ave neighs/atom = 28.8927
Neighbor list builds = 31
Dangerous builds = 0


###################### VELOCITIES ######################

velocity mW create ${T0} ${nRand} dist gaussian mom yes rot yes
velocity mW create 333 ${nRand} dist gaussian mom yes rot yes
velocity mW create 333 31611 dist gaussian mom yes rot yes


###################### EQUILIBRATION ######################

timestep $(v_Timestep/2)
timestep 5
fix f1 mW nvt temp ${T0} ${T0} $(100*v_Timestep/2) tchain 10
fix f1 mW nvt temp 333 ${T0} $(100*v_Timestep/2) tchain 10
fix f1 mW nvt temp 333 333 $(100*v_Timestep/2) tchain 10
fix f1 mW nvt temp 333 333 500 tchain 10
fix_modify f1 temp mWtemp
WARNING: Temperature for fix modify is not for group all (../fix_nh.cpp:1395)
run $(500*1000/v_Timestep/2)
run 25000
Per MPI rank memory allocation (min/avg/max) = 2.994 | 2.994 | 2.995 Mbytes
Step Time TotEng c_mWtemp KinEng PotEng Enthalpy Temp Press Volume Density CPU 
     593            0   -30674.189          333    2976.8366   -33651.026   -30317.476          333    264.86733    92345.414   0.97182764            0 
    1000         2035   -29772.352    210.44634    1881.2744   -31653.627   -31091.896    210.44634   -979.78929    92345.414   0.97182764     3.999518 
    1500         4535   -28609.154    258.95625    2314.9263   -30924.081   -29937.692    258.95625   -986.46751    92345.414   0.97182764      9.02092 
    2000         7035   -27580.067    301.66081    2696.6815   -30276.749   -28815.126    301.66081   -917.05717    92345.414   0.97182764    13.230293 
    2500         9535   -26859.629    322.01172    2878.6074   -29738.237   -28310.418    322.01172   -1077.2414    92345.414   0.97182764    17.344833 
    3000        12035   -26471.327    338.94092    3029.9452   -29501.272   -26827.485    338.94092   -264.45531    92345.414   0.97182764    22.933362 
    3500        14535   -26634.785    336.78194    3010.6451    -29645.43   -28195.257    336.78194   -1158.6836    92345.414   0.97182764    27.618007 
    4000        17035   -26549.005    333.00194     2976.854   -29525.859   -27549.443    333.00194   -742.84629    92345.414   0.97182764    31.727609 
    4500        19535   -26634.295    330.03649    2950.3444   -29584.639   -27808.472    330.03649   -871.85144    92345.414   0.97182764    36.051593 
    5000        22035     -26686.4    331.43139    2962.8142   -29649.214   -28177.574    331.43139   -1107.2278    92345.414   0.97182764     40.33174 
    5500        24535   -26575.234    335.90141    3002.7736   -29578.008   -27221.028    335.90141   -479.51577    92345.414   0.97182764    44.503031 
    6000        27035   -26588.462    339.74452    3037.1289   -29625.591   -27495.164    339.74452   -673.24526    92345.414   0.97182764    48.585117 
    6500        29535   -26804.727    323.17068    2888.9679   -29693.695   -27582.585    323.17068   -577.57574    92345.414   0.97182764    54.536129 
    7000        32035   -26674.676    330.16901    2951.5292   -29626.206   -27690.585    330.16901   -754.33392    92345.414   0.97182764    60.854272 
    7500        34535   -26643.634    336.58511    3008.8855   -29652.519   -27981.723    336.58511   -993.55943    92345.414   0.97182764    66.983912 
    8000        37035   -26697.489    333.36665    2980.1142   -29677.603   -28041.064    333.36665   -997.63332    92345.414   0.97182764    73.192492 
    8500        39535   -26635.509    339.23439    3032.5686   -29668.078   -27525.454    339.23439    -660.8025    92345.414   0.97182764    79.147013 
    9000        42035   -26644.004    335.83382    3002.1694   -29646.174   -28261.178    335.83382   -1200.7858    92345.414   0.97182764    83.435529 
    9500        44535   -26742.233    332.25396    2970.1674     -29712.4   -28150.091    332.25396   -1045.3645    92345.414   0.97182764    87.860282 
   10000        47035   -26775.633    324.03397    2896.6853   -29672.319   -27756.857    324.03397   -728.57953    92345.414   0.97182764    92.074168 
   10500        49535   -26609.649    337.51477    3017.1962   -29626.846   -27625.291    337.51477   -754.13526    92345.414   0.97182764    96.347573 
   11000        52035   -26637.553    333.59599    2982.1645   -29619.718   -28365.284    333.59599   -1282.8765    92345.414   0.97182764     100.5644 
   11500        54535   -26711.923    328.52802    2936.8596   -29648.782   -28332.076    328.52802   -1202.9984    92345.414   0.97182764    104.72787 
   12000        57035   -26620.903    333.48055    2981.1325   -29602.036   -27598.978    333.48055   -726.24146    92345.414   0.97182764     109.2909 
   12500        59535   -26604.274    333.46214    2980.9679   -29585.242   -27587.671    333.46214    -730.1932    92345.414   0.97182764    113.70358 
   13000        62035   -26656.388    327.31317    2925.9995   -29582.388   -27636.078    327.31317   -727.44031    92345.414   0.97182764    117.96655 
   13500        64535    -26674.84    332.76341    2974.7217   -29649.561   -27669.342    332.76341   -738.43909    92345.414   0.97182764    122.06367 
   14000        67035   -26597.884    338.14584    3022.8376   -29620.722   -28272.446    338.14584   -1243.3972    92345.414   0.97182764    126.39533 
   14500        69535   -26614.056    329.47464    2945.3219   -29559.378   -27941.823    329.47464   -985.89453    92345.414   0.97182764    130.53936 
   15000        72035    -26725.35    332.06413    2968.4705    -29693.82   -27835.784    332.06413   -824.52117    92345.414   0.97182764    134.70195 
   15500        74535   -26749.299    328.33571    2935.1404   -29684.439   -27837.879    328.33571   -808.29405    92345.414   0.97182764    138.86485 
   16000        77035   -26689.211    334.39921    2989.3448   -29678.555       -27622    334.39921   -692.61585    92345.414   0.97182764    143.09455 
   16500        79535   -26625.878    333.81353    2984.1092   -29609.987   -28061.725    333.81353   -1066.1471    92345.414   0.97182764    147.50911 
   17000        82035   -26605.291    333.81182    2984.0938   -29589.385   -27530.525    333.81182   -687.00569    92345.414   0.97182764    151.72398 
   17500        84535    -26714.37    332.57834    2973.0672   -29687.437   -27772.974    332.57834   -786.03634    92345.414   0.97182764    156.00191 
   18000        87035   -26664.172    333.73585    2983.4147   -29647.587   -28368.162    333.73585   -1265.2485    92345.414   0.97182764    160.62234 
   18500        89535   -26658.612    332.51106    2972.4658   -29631.078   -27809.141    332.51106   -854.29212    92345.414   0.97182764    164.70423 
   19000        92035   -26674.927    333.99232    2985.7074   -29660.635   -28074.348    333.99232   -1039.0993    92345.414   0.97182764    168.85675 
   19500        94535   -26681.521    331.66558    2964.9076   -29646.429   -27829.053    331.66558   -852.06656    92345.414   0.97182764    173.04743 
   20000        97035   -26606.127     328.4285      2935.97   -29542.097    -28228.67     328.4285   -1204.7722    92345.414   0.97182764    177.21599 
   20500        99535   -26713.901    325.59727    2910.6603   -29624.562   -28311.261    325.59727   -1186.0734    92345.414   0.97182764    181.30568 
   21000       102035    -26511.36    337.42212    3016.3679   -29527.728   -26961.609    337.42212   -334.31931    92345.414   0.97182764    185.56891 
   21500       104535   -26799.399    325.73357    2911.8787   -29711.278   -28028.846    325.73357    -912.8903    92345.414   0.97182764    189.75378 
   22000       107035   -26666.041    332.10093    2968.7994    -29634.84   -27330.981    332.10093   -493.73198    92345.414   0.97182764    193.93919 
   22500       109535   -26654.418    332.46813     2972.082     -29626.5   -27408.204    332.46813   -559.70145    92345.414   0.97182764    197.88113 
   23000       112035   -26641.007     330.0615     2950.568   -29591.575   -27871.768     330.0615   -913.86638    92345.414   0.97182764    201.98687 
   23500       114535   -26617.223    331.78012    2965.9316   -29583.155   -27464.465    331.78012   -629.09479    92345.414   0.97182764    206.38246 
   24000       117035     -26742.9    331.97855    2967.7054   -29710.606   -28162.677    331.97855   -1054.2139    92345.414   0.97182764    210.56279 
   24500       119535   -26746.107    322.85173    2886.1167   -29632.223   -27289.019    322.85173   -403.12417    92345.414   0.97182764     214.6502 
   25000       122035   -26648.881    328.40408    2935.7517   -29584.633   -27574.695    328.40408   -687.43575    92345.414   0.97182764    218.80058 
   25500       124535   -26661.055    331.73998    2965.5727   -29626.628   -27704.058    331.73998    -774.4515    92345.414   0.97182764     222.9283 
   25593       125000   -26663.815    335.10273    2995.6339   -29659.449   -28105.392    335.10273   -1070.4013    92345.414   0.97182764    223.72319 
Loop time of 223.724 on 2 procs for 25000 steps with 3000 atoms

Performance: 48.274 ns/day, 0.497 hours/ns, 111.745 timesteps/s
83.4% CPU use with 2 MPI tasks x no OpenMP threads

MPI task timing breakdown:
Section |  min time  |  avg time  |  max time  |%varavg| %total
---------------------------------------------------------------
Pair    | 184.57     | 184.59     | 184.62     |   0.2 | 82.51
Neigh   | 7.9325     | 7.9691     | 8.0056     |   1.3 |  3.56
Comm    | 28.858     | 28.928     | 28.997     |   1.3 | 12.93
Output  | 0.041483   | 0.046057   | 0.050631   |   2.1 |  0.02
Modify  | 1.8128     | 1.8309     | 1.849      |   1.3 |  0.82
Other   |            | 0.3594     |            |       |  0.16

Nlocal:    1500 ave 1509 max 1491 min
Histogram: 1 0 0 0 0 0 0 0 0 1
Nghost:    2234.5 ave 2246 max 2223 min
Histogram: 1 0 0 0 0 0 0 0 0 1
Neighs:    0 ave 0 max 0 min
Histogram: 2 0 0 0 0 0 0 0 0 0
FullNghs:  44237 ave 44569 max 43905 min
Histogram: 1 0 0 0 0 0 0 0 0 1

Total # of neighbors = 88474
Ave neighs/atom = 29.4913
Neighbor list builds = 1912
Dangerous builds = 12


###################### RUN ######################

unfix f1
fix f2 mW nvt temp ${T0} ${T1} $(100*v_Timestep) tchain 10
fix f2 mW nvt temp 333 ${T1} $(100*v_Timestep) tchain 10
fix f2 mW nvt temp 333 1 $(100*v_Timestep) tchain 10
fix f2 mW nvt temp 333 1 1000 tchain 10
fix_modify f2 temp mWtemp
WARNING: Temperature for fix modify is not for group all (../fix_nh.cpp:1395)

reset_timestep 0
run 0
Per MPI rank memory allocation (min/avg/max) = 3.002 | 3.002 | 3.002 Mbytes
Step Time TotEng c_mWtemp KinEng PotEng Enthalpy Temp Press Volume Density CPU 
       0       125000   -26663.815    335.10273    2995.6339   -29659.449   -28105.392    335.10273   -1070.4013    92345.414   0.97182764            0 
Loop time of 8.5e-06 on 2 procs for 0 steps with 3000 atoms

94.1% CPU use with 2 MPI tasks x no OpenMP threads

MPI task timing breakdown:
Section |  min time  |  avg time  |  max time  |%varavg| %total
---------------------------------------------------------------
Pair    | 0          | 0          | 0          |   0.0 |  0.00
Neigh   | 0          | 0          | 0          |   0.0 |  0.00
Comm    | 0          | 0          | 0          |   0.0 |  0.00
Output  | 0          | 0          | 0          |   0.0 |  0.00
Modify  | 0          | 0          | 0          |   0.0 |  0.00
Other   |            | 8.5e-06    |            |       |100.00

Nlocal:    1500 ave 1509 max 1491 min
Histogram: 1 0 0 0 0 0 0 0 0 1
Nghost:    2239 ave 2250 max 2228 min
Histogram: 1 0 0 0 0 0 0 0 0 1
Neighs:    0 ave 0 max 0 min
Histogram: 2 0 0 0 0 0 0 0 0 0
FullNghs:  44260 ave 44549 max 43971 min
Histogram: 1 0 0 0 0 0 0 0 0 1

Total # of neighbors = 88520
Ave neighs/atom = 29.5067
Neighbor list builds = 0
Dangerous builds = 0

timestep ${Timestep}
timestep 10
run $(v_nsRunTime*1000000/v_Timestep)
run 500000
Per MPI rank memory allocation (min/avg/max) = 3.002 | 3.002 | 3.002 Mbytes
Step Time TotEng c_mWtemp KinEng PotEng Enthalpy Temp Press Volume Density CPU 
       0       125000   -26663.815    335.10273    2995.6339   -29659.449   -28105.392    335.10273   -1070.4013    92345.414   0.97182764            0 
     500       130000   -26585.303    330.77828    2956.9756   -29542.278    -27506.73    330.77828   -684.17951    92345.414   0.97182764     4.312972 
    1000       135000   -26580.509    337.51741    3017.2198   -29597.729   -27669.168    337.51741   -808.35225    92345.414   0.97182764     8.541791 
    1500       140000   -26645.822    330.14334    2951.2996   -29597.122   -28148.109    330.14334   -1115.4796    92345.414   0.97182764    12.668238 
    2000       145000   -26729.353    321.50274    2874.0574   -29603.411   -27735.826    321.50274   -747.32745    92345.414   0.97182764    17.215909 
    2500       150000   -26720.989    327.22045    2925.1706    -29646.16   -28131.029    327.22045   -1046.9844    92345.414   0.97182764     21.31029 
    3000       155000   -26620.925    329.70053    2947.3412   -29568.267    -27710.26    329.70053   -808.85411    92345.414   0.97182764     25.39112 
    3500       160000   -26694.294    333.48366    2981.1603   -29675.454   -27236.358    333.48366   -402.49412    92345.414   0.97182764    29.607886 
    4000       165000   -26581.234     333.2261    2978.8579   -29560.092   -27414.074     333.2261    -618.4016    92345.414   0.97182764    33.831491 
    4500       170000   -26687.831    327.11194    2924.2006   -29612.031   -27199.112    327.11194   -379.63708    92345.414   0.97182764     38.19821 
    5000       175000    -26736.55    328.91075     2940.281   -29676.831   -27664.714    328.91075   -689.18128    92345.414   0.97182764    42.616333 
    5500       180000   -26627.742    328.48932    2936.5136   -29564.256   -27607.586    328.48932   -727.55419    92345.414   0.97182764    46.727978 
    6000       185000   -26615.725    328.81264    2939.4039   -29555.129   -27529.381    328.81264   -678.40877    92345.414   0.97182764    50.997595 
    6500       190000   -26739.798    327.88054    2931.0715    -29670.87   -27887.576    327.88054   -852.24928    92345.414   0.97182764    55.069567 
    7000       195000   -26666.993    324.29538    2899.0221   -29566.015   -27690.754    324.29538   -760.16406    92345.414   0.97182764    59.222848 
    7500       200000   -26646.025    326.07128    2914.8976   -29560.923   -27914.988    326.07128   -942.23198    92345.414   0.97182764    63.420943 
    8000       205000   -26710.258    322.86881    2886.2694   -29596.528   -27589.892    322.86881   -653.14686    92345.414   0.97182764    67.694874 
    8500       210000   -26799.886    322.81878    2885.8222   -29685.708   -27827.241    322.81878   -762.83304    92345.414   0.97182764    71.761435 
    9000       215000    -26681.24    321.93785    2877.9471   -29559.187   -28071.741    321.93785   -1032.4765    92345.414   0.97182764    75.871047 
    9500       220000   -26738.111    328.61166    2937.6073   -29675.718   -27316.081    328.61166   -429.15488    92345.414   0.97182764     80.33493 
   10000       225000   -26753.089    324.07107    2897.0169   -29650.106   -27768.496    324.07107   -753.96044    92345.414   0.97182764    84.393223 
   10500       230000    -26888.94    325.24632     2907.523   -29796.463   -28333.059    325.24632   -1072.2882    92345.414   0.97182764    88.559015 
   11000       235000   -26772.319    325.00409    2905.3576   -29677.677   -27603.032    325.00409   -616.82139    92345.414   0.97182764    92.713673 
   11500       240000   -26861.386    330.77824    2956.9753   -29818.362   -27909.101    330.77824   -777.95001    92345.414   0.97182764    96.900078 
   12000       245000   -26684.685    333.71915    2983.2655    -29667.95   -27712.081    333.71915   -762.86329    92345.414   0.97182764    101.19304 
   12500       250000   -26692.102    330.04228    2950.3962   -29642.499   -28009.395    330.04228   -978.11786    92345.414   0.97182764    105.42992 
   13000       255000   -26784.734    323.23421    2889.5358    -29674.27   -28288.739    323.23421   -1116.7555    92345.414   0.97182764    109.74202 
   13500       260000   -26822.484    323.14295      2888.72   -29711.204   -28023.111    323.14295   -891.49076    92345.414   0.97182764    114.19622 
   14000       265000   -26774.678    324.10781    2897.3453   -29672.024   -28350.744    324.10781   -1170.2618    92345.414   0.97182764    118.48392 
   14500       270000   -26787.532    327.76352    2930.0254   -29717.558   -27737.788    327.76352   -705.58468    92345.414   0.97182764    122.67298 
   15000       275000   -26860.409    316.75659    2831.6295   -29692.039   -28063.864    316.75659   -893.59049    92345.414   0.97182764    126.95138 
   15500       280000       -26874    323.79772    2894.5733   -29768.573   -27674.233    323.79772   -594.18994    92345.414   0.97182764    131.14629 
   16000       285000   -26879.403    315.32247    2818.8093   -29698.212    -28159.41    315.32247    -950.4327    92345.414   0.97182764    135.39178 
   16500       290000   -26731.756    327.35755    2926.3963   -29658.152   -27682.436    327.35755    -705.8996    92345.414   0.97182764    139.56127 
   17000       295000   -26909.513    316.73458    2831.4328   -29740.946   -28112.076    316.73458   -892.92858    92345.414   0.97182764    143.90355 
   17500       300000   -26954.396     306.1446    2736.7641    -29691.16   -28150.984     306.1446   -888.49154    92345.414   0.97182764    148.18239 
   18000       305000   -26760.579    321.80286    2876.7404    -29637.32   -27792.417    321.80286   -766.16142    92345.414   0.97182764    152.33519 
   18500       310000   -26819.191    323.25494    2889.7212   -29708.913   -27865.652    323.25494   -777.01883    92345.414   0.97182764    156.47703 
   19000       315000   -26866.203    320.89641    2868.6372    -29734.84   -27877.552    320.89641   -750.94835    92345.414   0.97182764    160.68071 
   19500       320000    -26929.72    320.11113    2861.6173   -29791.337   -28330.613    320.11113   -1040.1924    92345.414   0.97182764    165.00927 
   20000       325000   -26829.087    325.63187    2910.9696   -29740.056   -27891.623    325.63187   -788.95598    92345.414   0.97182764    169.24736 
   20500       330000   -26818.453    325.72475    2911.7999   -29730.253   -27858.686    325.72475   -772.39443    92345.414   0.97182764    173.40583 
   21000       335000   -26930.117    315.59936    2821.2845   -29751.401   -28449.275    315.59936   -1128.0074    92345.414   0.97182764    177.55797 
   21500       340000   -26957.611    317.30098    2836.4961   -29794.107   -28123.228    317.30098   -865.49497    92345.414   0.97182764    181.66407 
   22000       345000   -26915.223    315.41317      2819.62   -29734.843    -27745.63    315.41317   -616.59488    92345.414   0.97182764    186.20077 
   22500       350000   -26961.694     313.7554    2804.8005   -29766.495   -28824.099     313.7554   -1382.8747    92345.414   0.97182764    190.21084 
   23000       355000    -26888.02    315.19561    2817.6751   -29705.695   -28070.238    315.19561   -877.82237    92345.414   0.97182764    194.44133 
   23500       360000   -26970.457    319.66953    2857.6696   -29828.126   -28475.075    319.66953   -1117.2105    92345.414   0.97182764    198.55066 
   24000       365000   -26913.691    318.62965    2848.3736   -29762.064   -28336.193    318.62965   -1056.2383    92345.414   0.97182764    202.79234 
   24500       370000   -26970.659    321.82769    2876.9623   -29847.621   -27628.754    321.82769   -488.64909    92345.414   0.97182764    206.87317 
   25000       375000   -26998.579     315.8663    2823.6708    -29822.25   -28360.536     315.8663   -1011.2818    92345.414   0.97182764    210.91598 
   25500       380000   -26968.836     313.8198    2805.3762   -29774.213   -28009.915     313.8198   -773.02257    92345.414   0.97182764    214.93197 
   26000       385000   -26962.378    313.22853    2800.0905   -29762.468   -28060.704    313.22853   -815.53083    92345.414   0.97182764    219.11057 
   26500       390000   -27057.978    320.63373     2866.289   -29924.267    -28021.59    320.63373   -715.50279    92345.414   0.97182764    223.61211 
   27000       395000   -26952.763    309.18798    2763.9703   -29716.733   -28716.597    309.18798   -1309.6838    92345.414   0.97182764    227.70926 
   27500       400000   -27019.815    314.90537    2815.0806   -29834.896    -28857.35    314.90537   -1364.4084    92345.414   0.97182764    231.48619 
   28000       405000   -27071.461    312.47283     2793.335   -29864.796   -28520.872    312.47283   -1076.2178    92345.414   0.97182764    235.24468 
   28500       410000   -27009.494    318.10658    2843.6976   -29853.191   -28468.502    318.10658   -1083.3447    92345.414   0.97182764    238.85419 
   29000       415000    -26940.17    321.27684     2872.038   -29812.208   -27889.044    321.27684   -704.55867    92345.414   0.97182764    242.50124 
   29500       420000   -27066.781    313.08976    2798.8501   -29865.631   -28323.063    313.08976   -932.81607    92345.414   0.97182764    246.20761 
   30000       425000   -27016.238    316.88338    2832.7629   -29849.001    -28443.99    316.88338   -1060.1361    92345.414   0.97182764     249.8873 
   30500       430000   -27157.641     311.5659    2785.2276   -29942.869   -28522.924     311.5659    -1013.751    92345.414   0.97182764    253.49009 
   31000       435000   -27077.866    310.46368    2775.3744    -29853.24   -28575.776    310.46368   -1112.2299    92345.414   0.97182764    257.29939 
   31500       440000   -27047.502    319.87683    2859.5227   -29907.025   -28146.947    319.87683   -816.36113    92345.414   0.97182764    260.99512 
   32000       445000   -27074.623    312.41609    2792.8278   -29867.451   -28289.025    312.41609   -901.71897    92345.414   0.97182764    264.60892 
   32500       450000   -27085.725    313.55145    2802.9773   -29888.703   -27862.647    313.55145   -576.88054    92345.414   0.97182764    268.25827 
   33000       455000   -27032.628    311.83917    2787.6705   -29820.298   -28335.587    311.83917   -967.47482    92345.414   0.97182764    271.97118 
   33500       460000   -27101.034     305.9332    2734.8743   -29835.908   -28194.025     305.9332   -811.56913    92345.414   0.97182764    275.55445 
   34000       465000   -27058.199    313.44163    2801.9955   -29860.194   -28708.596    313.44163   -1225.4548    92345.414   0.97182764    279.20162 
   34500       470000   -27120.673    314.01479    2807.1193   -29927.793   -27791.577    314.01479   -498.16027    92345.414   0.97182764    282.97286 
   35000       475000   -27205.273    307.36599    2747.6827   -29952.956   -28607.904    307.36599   -1041.4833    92345.414   0.97182764    286.73735 
   35500       480000   -27186.034    313.24213    2800.2121   -29986.246    -28919.79    313.24213   -1287.3499    92345.414   0.97182764     348.3693 
   36000       485000   -27158.768    309.49709    2766.7336   -29925.502   -28465.393    309.49709   -970.19605    92345.414   0.97182764    354.71429 
   36500       490000   -27226.214     302.9257     2707.989   -29934.203   -28513.025     302.9257   -955.48428    92345.414   0.97182764    361.03321 
   37000       495000   -27042.122    309.96519    2770.9181    -29813.04   -28844.759    309.96519   -1338.4963    92345.414   0.97182764    366.74627 
   37500       500000   -27143.272    310.36874    2774.5256   -29917.798   -28964.526    310.36874   -1352.3193    92345.414   0.97182764    372.28568 
   38000       505000   -27240.284    303.28355     2711.188   -29951.472   -28856.617    303.28355   -1200.1616    92345.414   0.97182764    377.65696 
   38500       510000   -27258.758    306.87679    2743.3095   -30002.068   -29265.418    306.87679   -1489.9869    92345.414   0.97182764    382.73042 
   39000       515000   -27156.545     303.9228    2716.9025   -29873.447   -28656.068     303.9228   -1113.4276    92345.414   0.97182764    387.98524 
   39500       520000   -27269.033    298.95041    2672.4521   -29941.485   -28360.981    298.95041   -810.79479    92345.414   0.97182764    399.00866 
   40000       525000   -27219.856    301.08094    2691.4978   -29911.354   -28615.478    301.08094   -1036.2782    92345.414   0.97182764    405.32148 
   40500       530000    -27149.71     310.8492    2778.8207   -29928.531   -28503.965     310.8492   -1005.5628    92345.414   0.97182764    409.58941 
   41000       535000   -27175.307     308.7523    2760.0755   -29935.383   -28538.744     308.7523   -1012.3804    92345.414   0.97182764    413.79773 
   41500       540000   -27245.312     299.2704    2675.3125   -29920.625   -28707.369     299.2704   -1085.6078    92345.414   0.97182764    418.11382 
   42000       545000   -27318.863     299.8535    2680.5252   -29999.388   -28310.172     299.8535   -736.06753    92345.414   0.97182764    422.27125 
   42500       550000    -27273.02    300.82922    2689.2476   -29962.268   -28513.558    300.82922   -921.12508    92345.414   0.97182764    426.60817 
   43000       555000   -27216.019    306.61383    2740.9588   -29956.978   -28959.119    306.61383   -1294.2885    92345.414   0.97182764    432.01724 
   43500       560000   -27298.129    302.91952    2707.9337   -30006.062   -28517.657    302.91952   -905.52571    92345.414   0.97182764    436.85178 
   44000       565000   -27239.779    309.30153    2764.9854   -30004.764   -28731.773    309.30153   -1107.8372    92345.414   0.97182764    441.31467 
   44500       570000   -27412.788    292.47024    2614.5229   -30027.311   -28599.027    292.47024   -880.80748    92345.414   0.97182764    446.41446 
   45000       575000   -27293.105    301.47425    2695.0138   -29988.119    -29203.87    301.47425   -1418.7836    92345.414   0.97182764    453.66067 
   45500       580000   -27392.449    295.43617    2641.0367   -30033.486    -29025.07    295.43617   -1212.2553    92345.414   0.97182764    458.58709 
   46000       585000     -27188.4    303.09013    2709.4588   -29897.858   -28933.998    303.09013   -1296.1437    92345.414   0.97182764    462.83963 
   46500       590000   -27297.571    303.54666      2713.54   -30011.111   -28822.087    303.54666   -1131.9852    92345.414   0.97182764     468.5696 
   47000       595000   -27386.915    300.80391    2689.0213   -30075.936    -29085.82    300.80391   -1261.4729    92345.414   0.97182764    473.87225 
   47500       600000   -27268.367    304.44012    2721.5271   -29989.894   -28875.095    304.44012   -1193.0295    92345.414   0.97182764     478.5876 
   48000       605000   -27304.712    303.15245    2710.0159   -30014.728   -28803.444    303.15245   -1112.8405    92345.414   0.97182764    483.20533 
   48500       610000   -27396.616    298.09847    2664.8361   -30061.452    -29554.09    298.09847   -1601.9702    92345.414   0.97182764    487.79956 
   49000       615000   -27287.452    299.11815    2673.9515   -29961.404   -29121.734    299.11815   -1361.9928    92345.414   0.97182764    492.38321 
   49500       620000    -27352.03    301.46818    2694.9595   -30046.989   -28315.244    301.46818   -715.20676    92345.414   0.97182764    496.93088 
   50000       625000   -27475.758    289.90049    2591.5508   -30067.309    -28733.81    289.90049   -934.12989    92345.414   0.97182764    501.71932 
   50500       630000   -27183.429    310.33026    2774.1816    -29957.61   -28067.093    310.33026   -656.13968    92345.414   0.97182764    506.26446 
   51000       635000   -27459.306    291.14015    2602.6326   -30061.938   -29113.568    291.14015   -1228.3246    92345.414   0.97182764    510.74578 
   51500       640000   -27443.613    292.34411    2613.3954   -30057.009   -29342.792    292.34411   -1410.1804    92345.414   0.97182764    515.38258 
   52000       645000    -27356.78    293.51185    2623.8343   -29980.614    -29208.51    293.51185   -1374.9485    92345.414   0.97182764    519.85351 
   52500       650000   -27358.902    299.43161    2676.7537   -30035.655    -29657.72    299.43161   -1706.9212    92345.414   0.97182764     524.4843 
   53000       655000   -27382.654    298.47555     2668.207   -30050.861   -28494.302    298.47555   -825.42207    92345.414   0.97182764    528.90759 
   53500       660000    -27477.01    292.93051    2618.6375   -30095.648   -29271.424    292.93051   -1332.3902    92345.414   0.97182764    533.26035 
   54000       665000   -27574.705    289.56291     2588.533   -30163.238   -29127.313    289.56291   -1152.8443    92345.414   0.97182764    538.49403 
   54500       670000   -27411.086    299.71879     2679.321   -30090.407   -29019.187    299.71879   -1194.0488    92345.414   0.97182764     542.9683 
   55000       675000       -27400    294.72353    2634.6661   -30034.667   -28976.293    294.72353   -1170.4303    92345.414   0.97182764    547.47593 
   55500       680000   -27515.392    295.22925    2639.1869   -30154.579   -29055.403    295.22925   -1143.4901    92345.414   0.97182764    552.29487 
   56000       685000   -27427.247    293.50576    2623.7799   -30051.027   -28891.718    293.50576      -1087.4    92345.414   0.97182764    557.00027 
   56500       690000    -27372.14    308.30719    2756.0965   -30128.237   -28875.339    308.30719    -1116.157    92345.414   0.97182764    561.54545 
   57000       695000   -27442.694    296.91147     2654.225   -30096.919   -28648.741    296.91147   -895.51527    92345.414   0.97182764    565.81257 
   57500       700000   -27470.803    296.31641    2648.9056   -30119.709   -28697.184    296.31641   -910.61378    92345.414   0.97182764    570.26439 
   58000       705000   -27530.947    292.27673     2612.793    -30143.74   -28879.194    292.27673   -1001.1022    92345.414   0.97182764    576.99905 
   58500       710000    -27486.42    293.93853    2627.6486   -30114.069   -28871.843    293.93853   -1028.7055    92345.414   0.97182764    582.08886 
   59000       715000   -27435.717     299.8154    2680.1845   -30115.902   -28687.527     299.8154   -929.49509    92345.414   0.97182764    586.62511 
   59500       720000   -27601.356    283.27748    2532.3447     -30133.7   -29729.504    283.27748    -1580.195    92345.414   0.97182764    590.75119 
   60000       725000   -27478.836    295.83867    2644.6348    -30123.47   -29237.478    295.83867   -1305.8292    92345.414   0.97182764    594.96674 
   60500       730000   -27515.172    285.41507    2551.4535   -30066.626   -29270.045    285.41507   -1303.0298    92345.414   0.97182764    599.12097 
   61000       735000   -27600.163    285.00567    2547.7937   -30147.956   -28702.171    285.00567   -818.26419    92345.414   0.97182764    603.48488 
   61500       740000   -27574.448    287.54372    2570.4825   -30144.931   -29261.499    287.54372   -1252.6708    92345.414   0.97182764    607.80416 
   62000       745000   -27404.863    302.82986    2707.1322   -30111.995   -28828.662    302.82986   -1057.2003    92345.414   0.97182764    612.07295 
   62500       750000   -27643.167     288.5451    2579.4343   -30222.601   -29231.348     288.5451   -1179.2584    92345.414   0.97182764    617.95212 
   63000       755000   -27632.476    294.16913      2629.71   -30262.186   -28983.524    294.16913    -1003.182    92345.414   0.97182764    622.21722 
   63500       760000    -27556.59    290.96671    2601.0821   -30157.672   -29112.439    290.96671   -1155.2509    92345.414   0.97182764    626.45297 
   64000       765000   -27641.362    293.42807    2623.0853   -30264.447   -29190.383    293.42807   -1150.1806    92345.414   0.97182764    630.64225 
   64500       770000     -27725.9    286.61193    2562.1528   -30288.053   -29346.459    286.61193   -1203.2987    92345.414   0.97182764    634.86635 
   65000       775000   -27520.211    293.77191    2626.1591    -30146.37   -29129.975    293.77191   -1195.2839    92345.414   0.97182764    638.96423 
   65500       780000   -27599.732    296.99524    2654.9739   -30254.706   -29157.869    296.99524    -1156.949    92345.414   0.97182764     643.3041 
   66000       785000   -27576.651    289.09362    2584.3378   -30160.989   -29143.827    289.09362   -1163.6612    92345.414   0.97182764    647.45921 
   66500       790000   -27713.833    290.11682    2593.4846   -30307.317   -28842.049    290.11682   -837.72473    92345.414   0.97182764    652.99047 
   67000       795000   -27641.639    288.18632     2576.227   -30217.866   -28897.906    288.18632   -932.80488    92345.414   0.97182764    657.56274 
   67500       800000   -27688.182    289.56276    2588.5316   -30276.713   -29489.104    289.56276   -1337.2227    92345.414   0.97182764    662.03606 
   68000       805000   -27654.015     287.9075    2573.7345    -30227.75   -29361.783     287.9075   -1268.0536    92345.414   0.97182764    666.96044 
   68500       810000   -27747.177    280.31908    2505.8982   -30253.075   -29433.452    280.31908   -1252.0947    92345.414   0.97182764    671.64553 
   69000       815000   -27605.207    287.62514    2571.2103   -30176.418   -29095.317    287.62514   -1106.4377    92345.414   0.97182764    676.10496 
   69500       820000   -27661.737    291.78175    2608.3682   -30270.105   -30145.879    291.78175    -1844.528    92345.414   0.97182764    680.80226 
   70000       825000   -27622.897    284.23528    2540.9069   -30163.804   -29141.382    284.23528   -1127.5072    92345.414   0.97182764    685.23201 
   70500       830000   -27558.093    288.92994    2582.8745   -30140.967   -29638.581    288.92994   -1544.8059    92345.414   0.97182764    689.59936 
   71000       835000   -27737.235    283.12359     2530.969   -30268.204   -29660.936    283.12359   -1428.3884    92345.414   0.97182764     694.0847 
   71500       840000    -27663.74      285.045    2548.1454   -30211.885   -29783.808      285.045   -1574.1953    92345.414   0.97182764    698.72281 
   72000       845000   -27865.141    281.38398    2515.4178   -30380.558   -30285.992    281.38398   -1797.5328    92345.414   0.97182764    703.29197 
   72500       850000   -27702.336    289.57986    2588.6845    -30291.02   -28990.633    289.57986   -956.58741    92345.414   0.97182764    707.73884 
   73000       855000   -27758.181    278.18555    2486.8256   -30245.007   -29786.694    278.18555   -1506.2132    92345.414   0.97182764    712.06446 
   73500       860000   -27729.326    283.61412    2535.3541    -30264.68   -28830.764    283.61412   -817.84084    92345.414   0.97182764    716.35079 
   74000       865000   -27717.048    282.95539    2529.4654   -30246.514   -29422.796    282.95539   -1266.5534    92345.414   0.97182764    720.75979 
   74500       870000   -27699.228    290.12304    2593.5402   -30292.768   -29404.624    290.12304   -1266.2926    92345.414   0.97182764     725.2738 
   75000       875000   -27778.523    284.48332    2543.1242   -30321.648   -29208.704    284.48332   -1061.9393    92345.414   0.97182764    729.81878 
   75500       880000   -27796.489    278.92777    2493.4606    -30289.95   -29540.015    278.92777   -1294.6048    92345.414   0.97182764    734.23063 
   76000       885000   -27720.506     289.6797     2589.577   -30310.083   -29671.466     289.6797   -1448.6287    92345.414   0.97182764    738.72457 
   76500       890000   -27692.402    287.20807     2567.482   -30259.884   -29758.619    287.20807   -1534.2102    92345.414   0.97182764    743.36304 
   77000       895000   -27861.174    285.35817    2550.9449   -30412.119   -29440.338    285.35817   -1172.5623    92345.414   0.97182764    747.72849 
   77500       900000   -27809.009    283.57984    2535.0476   -30344.057   -29348.444    283.57984   -1143.0629    92345.414   0.97182764    752.11559 
   78000       905000   -27800.081    276.70282    2473.5708   -30273.652   -29670.538    276.70282   -1388.8537    92345.414   0.97182764    756.89589 
   78500       910000   -27820.788    282.34777    2524.0336   -30344.821   -29607.847    282.34777   -1326.9292    92345.414   0.97182764    761.38769 
   79000       915000   -27883.804    271.97438    2431.3012   -30315.105   -29325.726    271.97438   -1070.6577    92345.414   0.97182764    765.88864 
   79500       920000    -27913.38     279.7763    2501.0461   -30414.426   -29736.099     279.7763   -1353.4069    92345.414   0.97182764    770.42983 
   80000       925000   -27843.909    275.64721    2464.1342   -30308.043   -29589.584    275.64721   -1296.2007    92345.414   0.97182764    774.97706 
   80500       930000   -27868.386     279.3387    2497.1342    -30365.52   -29227.381     279.3387   -1009.0821    92345.414   0.97182764    779.55816 
   81000       935000   -27785.607    290.46678    2596.6131    -30382.22   -29343.261    290.46678   -1156.5911    92345.414   0.97182764     784.3096 
   81500       940000   -28026.398    278.23307    2487.2504   -30513.649    -29378.78    278.23307   -1004.1721    92345.414   0.97182764    789.12066 
   82000       945000   -27810.129     283.7337    2536.4231   -30346.553   -29448.871     283.7337      -1216.8    92345.414   0.97182764     793.2992 
   82500       950000   -27878.629    270.97032    2422.3254   -30300.955   -29784.168    270.97032   -1414.9027    92345.414   0.97182764    797.36444 
   83000       955000   -27887.214    276.67281    2473.3026   -30360.517   -29774.921    276.67281   -1401.6621    92345.414   0.97182764    801.64947 
   83500       960000   -27894.902    281.99341    2520.8658   -30415.768   -29707.735    281.99341   -1346.0667    92345.414   0.97182764    805.47841 
   84000       965000   -27874.601    284.60948     2544.252   -30418.853   -30043.842    284.60948   -1610.7073    92345.414   0.97182764     809.3759 
   84500       970000   -27973.937    275.87591    2466.1787   -30440.116   -29597.156    275.87591   -1205.2744    92345.414   0.97182764    813.33402 
   85000       975000   -27920.424    279.02425    2494.3232   -30414.748    -29088.26    279.02425   -867.14224    92345.414   0.97182764    817.43766 
   85500       980000   -28136.438    278.35087    2488.3035   -30624.741   -30350.452    278.35087   -1643.9522    92345.414   0.97182764    821.23403 
   86000       985000   -28026.958    275.87166    2466.1408   -30493.099   -29795.512    275.87166   -1313.1888    92345.414   0.97182764    825.22906 
   86500       990000   -27918.936    275.77538      2465.28   -30384.216   -29551.574    275.77538   -1212.2682    92345.414   0.97182764    829.25855 
   87000       995000   -27967.462    274.16889    2450.9189   -30418.381   -29582.928    274.16889   -1199.5174    92345.414   0.97182764    833.14377 
   87500      1000000   -27986.412    281.80121    2519.1477    -30505.56   -29048.605    281.80121   -788.70061    92345.414   0.97182764    837.00839 
   88000      1005000   -28048.088    270.72897    2420.1679   -30468.256   -29857.498    270.72897   -1343.5244    92345.414   0.97182764    841.03847 
   88500      1010000   -28191.307    276.27221    2469.7214   -30661.028   -29249.267    276.27221   -785.55766    92345.414   0.97182764    844.95762 
   89000      1015000   -28043.265    279.38711    2497.5669   -30540.832   -29698.606    279.38711   -1229.1255    92345.414   0.97182764    848.90085 
   89500      1020000   -28020.617     277.6632    2482.1561   -30502.773   -29882.819     277.6632   -1382.7248    92345.414   0.97182764    852.82005 
   90000      1025000   -28053.511    273.81172     2447.726   -30501.237   -30077.961    273.81172   -1503.1966    92345.414   0.97182764    856.90275 
   90500      1030000   -27934.226    277.88539    2484.1424   -30418.369   -29836.058    277.88539   -1412.1498    92345.414   0.97182764    860.84597 
   91000      1035000   -28104.794    270.82708    2421.0449   -30525.838   -29863.902    270.82708   -1306.1751    92345.414   0.97182764    864.78404 
   91500      1040000   -28110.924     277.8214    2483.5704   -30594.494   -29792.442     277.8214   -1248.5629    92345.414   0.97182764    868.62711 
   92000      1045000   -28109.776    271.09575    2423.4467   -30533.222   -29340.043    271.09575   -913.49913    92345.414   0.97182764    872.52196 
   92500      1050000   -28080.796    274.75927    2456.1966   -30536.992   -29995.803    274.75927   -1421.9332    92345.414   0.97182764     876.5716 
   93000      1055000   -27976.957    274.95967     2457.988   -30434.945   -29745.436    274.95967   -1313.1328    92345.414   0.97182764    880.47674 
   93500      1060000   -27975.937     277.6375    2481.9264   -30457.864   -29152.242     277.6375   -873.43055    92345.414   0.97182764    884.49323 
   94000      1065000   -28093.696    272.28031     2434.036   -30527.732   -29935.904    272.28031   -1367.8782    92345.414   0.97182764    888.62736 
   94500      1070000   -28159.742    267.71267    2393.2038   -30552.946   -29938.122    267.71267   -1320.4846    92345.414   0.97182764    892.53862 
   95000      1075000    -28207.93    266.50223    2382.3832   -30590.313   -29629.078    266.50223   -1055.2324    92345.414   0.97182764    896.47547 
   95500      1080000   -28181.821    266.93598    2386.2606   -30568.082   -29980.562    266.93598    -1335.603    92345.414   0.97182764    900.36536 
   96000      1085000   -28153.244    268.05043    2396.2233   -30549.467   -29550.211    268.05043   -1037.2775    92345.414   0.97182764     904.4029 
   96500      1090000   -28162.863    269.21683    2406.6502   -30569.513   -29882.863    269.21683   -1277.1364    92345.414   0.97182764    908.39832 
   97000      1095000   -28071.639    278.83461    2492.6279   -30564.267   -29522.034    278.83461   -1076.9493    92345.414   0.97182764     912.3699 
   97500      1100000   -28259.593    263.41134    2354.7523   -30614.345   -30089.348    263.41134   -1358.6317    92345.414   0.97182764      916.269 
   98000      1105000   -28255.989    263.58045    2356.2641   -30612.253   -30481.808    263.58045   -1652.7178    92345.414   0.97182764    920.24938 
   98500      1110000   -28205.024    265.76827     2375.822   -30580.846   -29558.947    265.76827   -1005.3158    92345.414   0.97182764    924.00262 
   99000      1115000   -28134.851     265.9877    2377.7835   -30512.635   -29242.666     265.9877   -822.57546    92345.414   0.97182764    927.82352 
   99500      1120000   -28237.653    264.16317    2361.4733   -30599.127   -29482.812    264.16317    -924.5565    92345.414   0.97182764    931.61419 
  100000      1125000   -28214.995    265.81683    2376.2561   -30591.251   -30071.519    265.81683   -1378.5083    92345.414   0.97182764    935.65034 
  100500      1130000   -28351.999     269.5822    2409.9164   -30761.915   -30183.778     269.5822   -1360.1343    92345.414   0.97182764    939.51077 
  101000      1135000   -28213.375    274.03313    2449.7052    -30663.08   -30323.869    274.03313   -1567.0864    92345.414   0.97182764    943.45297 
  101500      1140000   -28182.143    265.81617    2376.2502   -30558.393   -29741.615    265.81617   -1157.9408    92345.414   0.97182764    947.52311 
  102000      1145000   -28236.248     260.8695    2332.0297   -30568.277   -29719.653     260.8695   -1101.4595    92345.414   0.97182764    951.46818 
  102500      1150000   -28396.664    256.42721    2292.3181   -30688.982   -30583.204    256.42721   -1623.5515    92345.414   0.97182764    955.33741 
  103000      1155000   -28374.531    262.29067    2344.7342   -30719.266   -30183.262    262.29067   -1343.0208    92345.414   0.97182764    959.18453 
  103500      1160000   -28312.477    266.56267    2382.9235     -30695.4   -29749.148    266.56267   -1066.7589    92345.414   0.97182764    963.10485 
  104000      1165000   -28224.979    263.54365    2355.9351   -30580.915   -30334.234    263.54365   -1566.1656    92345.414   0.97182764    966.98745 
  104500      1170000     -28291.6    267.13189     2388.012   -30679.612   -29749.193    267.13189    -1082.294    92345.414   0.97182764    970.92976 
  105000      1175000    -28260.92    269.96325    2413.3228   -30674.242   -29776.253    269.96325   -1125.1669    92345.414   0.97182764    974.81232 
  105500      1180000   -28312.251    262.39526    2345.6692    -30657.92   -30239.711    262.39526   -1431.1793    92345.414   0.97182764    978.81053 
  106000      1185000   -28503.414    256.71528    2294.8933   -30798.307   -30582.521    256.71528   -1543.7807    92345.414   0.97182764    982.81748 
  106500      1190000   -28335.128    263.95711    2359.6312   -30694.759   -30263.983    263.95711    -1432.215    92345.414   0.97182764    986.78428 
  107000      1195000   -28324.242    259.29222    2317.9297   -30642.172   -30057.546    259.29222   -1287.0145    92345.414   0.97182764    990.78664 
  107500      1200000   -28318.767    262.08698    2342.9133   -30661.681   -30321.994    262.08698   -1487.4379    92345.414   0.97182764    994.83925 
  108000      1205000   -28389.785    259.39476    2318.8463   -30708.632   -29855.696    259.39476   -1088.4693    92345.414   0.97182764    998.66989 
  108500      1210000   -28440.159    255.60445     2284.963   -30725.122   -30267.207    255.60445   -1356.6217    92345.414   0.97182764    1002.4972 
  109000      1215000   -28383.655    256.72614    2294.9903   -30678.645   -30304.712    256.72614   -1426.4257    92345.414   0.97182764    1006.3923 
  109500      1220000   -28336.196     261.2697    2335.6072   -30671.804   -29583.996     261.2697   -926.51729    92345.414   0.97182764    1010.1788 
  110000      1225000   -28398.576    260.45068    2328.2857   -30726.861   -30256.252    260.45068   -1379.3639    92345.414   0.97182764     1013.987 
  110500      1230000   -28443.601    260.48938    2328.6316   -30772.233   -30247.993    260.48938   -1339.7991    92345.414   0.97182764    1017.7715 
  111000      1235000   -28475.044    259.78219    2322.3098   -30797.354   -30153.476    259.78219   -1246.2705    92345.414   0.97182764    1021.7269 
  111500      1240000    -28637.44    255.06933    2280.1793   -30917.619    -30581.37    255.06933   -1443.4095    92345.414   0.97182764    1025.6775 
  112000      1245000   -28405.717    255.33761    2282.5776   -30688.295   -30573.764    255.33761   -1609.8201    92345.414   0.97182764    1029.5286 
  112500      1250000    -28472.28    263.53578    2355.8648   -30828.145   -29998.522    263.53578   -1133.2665    92345.414   0.97182764    1033.4051 
  113000      1255000   -28541.715    256.54632    2293.3828   -30835.098    -30253.41    256.54632   -1270.9692    92345.414   0.97182764    1037.1724 
  113500      1260000   -28527.988    253.18053    2263.2946   -30791.283   -30319.922    253.18053   -1330.5484    92345.414   0.97182764    1040.9638 
  114000      1265000   -28533.934    253.44346     2265.645   -30799.579   -30470.964    253.44346   -1438.2855    92345.414   0.97182764    1044.6826 
  114500      1270000   -28520.796    260.21453    2326.1746    -30846.97   -30179.839    260.21453   -1231.8743    92345.414   0.97182764    1048.4331 
  115000      1275000   -28554.426     255.5121    2284.1375   -30838.564   -30363.434     255.5121   -1343.2267    92345.414   0.97182764    1052.3403 
  115500      1280000   -28555.836    256.92737    2296.7892   -30852.625   -29976.631    256.92737   -1054.9705    92345.414   0.97182764    1056.3069 
  116000      1285000   -28445.843    254.12134    2271.7048   -30717.548   -30608.629    254.12134   -1605.9142    92345.414   0.97182764    1060.1739 
  116500      1290000   -28541.241    257.68045    2303.5214   -30844.763   -30515.504    257.68045   -1465.9319    92345.414   0.97182764    1064.2684 
  117000      1295000   -28502.445    255.89424    2287.5536   -30789.998   -30392.113    255.89424   -1403.1185    92345.414   0.97182764    1068.1628 
  117500      1300000   -28556.288    255.92638    2287.8409   -30844.129    -30516.22    255.92638   -1455.2907    92345.414   0.97182764    1072.0075 
  118000      1305000   -28557.546    260.58474    2329.4841   -30887.031   -30419.014    260.58474   -1382.1786    92345.414   0.97182764    1075.7351 
  118500      1310000   -28585.741    255.23734    2281.6813   -30867.423   -30619.883    255.23734    -1510.393    92345.414   0.97182764    1079.5022 
  119000      1315000   -28676.684    249.94352    2234.3575   -30911.041   -30224.373    249.94352   -1149.1922    92345.414   0.97182764    1083.4172 
  119500      1320000   -28725.254    247.52156    2212.7065   -30937.961   -30231.537    247.52156   -1118.4464    92345.414   0.97182764    1087.5617 
  120000      1325000   -28582.644    257.32974    2300.3862    -30883.03   -30473.071    257.32974    -1403.682    92345.414   0.97182764    1091.3712 
  120500      1330000   -28634.939    247.57516    2213.1856   -30848.125   -30110.587    247.57516   -1095.6993    92345.414   0.97182764    1095.1365 
  121000      1335000     -28475.6    261.24963    2335.4278   -30811.028   -30312.102    261.24963   -1363.6413    92345.414   0.97182764      1098.87 
  121500      1340000   -28740.683    250.43413    2238.7432   -30979.426   -30889.431    250.43413    -1595.491    92345.414   0.97182764    1102.6342 
  122000      1345000   -28681.129    252.25958    2255.0618   -30936.191   -30178.877    252.25958   -1112.1092    92345.414   0.97182764    1106.3576 
  122500      1350000   -28752.339    247.43293    2211.9141   -30964.253   -30509.638    247.43293   -1304.8316    92345.414   0.97182764    1110.1806 
  123000      1355000   -28717.595       249.53    2230.6608   -30948.256   -30455.658       249.53    -1290.548    92345.414   0.97182764    1114.1048 
  123500      1360000   -28609.029    250.73646    2241.4459   -30850.475   -30579.019    250.73646   -1462.7587    92345.414   0.97182764    1118.1435 
  124000      1365000   -28693.749     249.2657    2228.2981   -30922.047   -30098.038     249.2657   -1042.7145    92345.414   0.97182764    1122.0076 
  124500      1370000   -28726.747    250.15442    2236.2428    -30962.99   -30834.346    250.15442   -1564.9364    92345.414   0.97182764    1125.8035 
  125000      1375000    -28829.86    248.73878    2223.5877   -31053.448   -30661.359    248.73878   -1359.9264    92345.414   0.97182764     1129.633 
  125500      1380000   -28681.791    254.75484     2277.368   -30959.159   -30483.771    254.75484   -1338.0082    92345.414   0.97182764    1133.3492 
  126000      1385000   -28768.405     257.8599    2305.1255    -31073.53     -30657.5     257.8599   -1402.6928    92345.414   0.97182764    1137.1466 
  126500      1390000    -28747.65    252.15251    2254.1046   -31001.755   -30756.177    252.15251   -1491.3735    92345.414   0.97182764     1140.803 
  127000      1395000   -28625.166    254.18546     2272.278   -30897.444   -30092.479    254.18546   -1089.5108    92345.414   0.97182764    1144.5977 
  127500      1400000   -28782.287    245.16503    2191.6404   -30973.927   -30835.147    245.16503   -1524.2914    92345.414   0.97182764    1148.4444 
  128000      1405000   -28721.015    249.81998    2233.2531   -30954.268    -30658.17    249.81998   -1438.3786    92345.414   0.97182764    1152.2219 
  128500      1410000   -28742.543    253.44982    2265.7018   -31008.245   -30409.257    253.44982     -1237.57    92345.414   0.97182764    1155.8338 
  129000      1415000   -28819.831    246.42719    2202.9234   -31022.754   -30456.716    246.42719   -1215.4216    92345.414   0.97182764    1159.5771 
  129500      1420000   -28875.361     251.6518    2249.6285   -31124.989   -30259.008     251.6518   -1027.3876    92345.414   0.97182764    1163.4392 
  130000      1425000   -28859.213    242.23469    2165.4448   -31024.658   -30884.852    242.23469   -1504.0799    92345.414   0.97182764    1167.1494 
  130500      1430000   -28841.807    255.37148    2282.8804   -31124.688   -30602.172    255.37148   -1307.1077    92345.414   0.97182764    1170.8827 
  131000      1435000   -28773.672    253.13387    2262.8774    -31036.55   -30154.237    253.13387   -1025.0981    92345.414   0.97182764    1174.6032 
  131500      1440000   -28833.047    247.41235    2211.7302   -31044.778   -30339.819    247.41235     -1118.81    92345.414   0.97182764    1178.5638 
  132000      1445000   -28868.862    246.22192    2201.0884    -31069.95   -30820.589    246.22192   -1449.1989    92345.414   0.97182764    1182.4507 
  132500      1450000   -28947.488    237.63069    2124.2876   -31071.776    -30818.16    237.63069   -1389.0129    92345.414   0.97182764    1186.1039 
  133000      1455000   -28928.639    242.30923    2166.1111    -31094.75   -30508.146    242.30923   -1172.8169    92345.414   0.97182764    1190.5115 
  133500      1460000   -28953.522    244.01248    2181.3372   -31134.859   -31208.814    244.01248   -1674.6015    92345.414   0.97182764     1194.275 
  134000      1465000    -28854.71    245.63042    2195.8007   -31050.511   -30475.221    245.63042   -1203.2634    92345.414   0.97182764    1198.0288 
  134500      1470000    -29000.05    243.35795     2175.486   -31175.536   -30572.975    243.35795   -1167.9299    92345.414   0.97182764    1201.7997 
  135000      1475000   -28936.535    242.29559    2165.9891   -31102.524    -30151.57    242.29559    -902.1886    92345.414   0.97182764    1205.4975 
  135500      1480000   -28948.515    246.71403    2205.4875   -31154.002   -30718.334    246.71403   -1314.1282    92345.414   0.97182764    1209.2253 
  136000      1485000   -29015.707    239.73157    2143.0682   -31158.775   -30485.053    239.73157   -1091.0206    92345.414   0.97182764    1212.9652 
  136500      1490000   -28891.994    246.59913    2204.4604   -31096.454   -30617.059    246.59913   -1280.8975    92345.414   0.97182764      1216.71 
  137000      1495000   -28993.686    239.09454    2137.3735    -31131.06   -31020.584    239.09454   -1505.0145    92345.414   0.97182764    1220.3798 
  137500      1500000   -28885.897    252.04616    2253.1539   -31139.051   -30800.114    252.04616   -1421.3463    92345.414   0.97182764    1223.9779 
  138000      1505000    -29077.02    241.68675    2160.5464   -31237.567   -30287.591    241.68675   -898.87467    92345.414   0.97182764    1227.6013 
  138500      1510000   -29112.275    243.95557    2180.8284   -31293.103    -30624.83    243.95557    -1123.104    92345.414   0.97182764    1231.2712 
  139000      1515000   -29073.642    244.69244    2187.4157   -31261.058   -30787.671    244.69244   -1272.7025    92345.414   0.97182764    1235.1291 
  139500      1520000   -29164.415    236.80245    2116.8835   -31281.298   -30846.805    236.80245     -1249.21    92345.414   0.97182764    1238.6948 
  140000      1525000   -29199.522    233.87123      2090.68   -31290.202   -30841.026    233.87123   -1218.8517    92345.414   0.97182764    1242.4497 
  140500      1530000   -29036.322    237.79965    2125.7979    -31162.12   -30290.282    237.79965   -931.09152    92345.414   0.97182764    1246.0546 
  141000      1535000   -29117.285    239.50132    2141.0099   -31258.295   -30429.837    239.50132   -974.59746    92345.414   0.97182764    1249.9667 
  141500      1540000   -29104.103    241.29616    2157.0548   -31261.157   -30792.932    241.29616   -1253.9914    92345.414   0.97182764    1253.5029 
  142000      1545000   -29111.188    237.71424    2125.0344   -31236.222   -30303.244    237.71424   -885.12656    92345.414   0.97182764    1257.1656 
  142500      1550000   -29195.104    238.57578    2132.7361    -31327.84   -30619.861    238.57578   -1057.9122    92345.414   0.97182764    1260.7182 
  143000      1555000   -29144.631    240.18575    2147.1283    -31291.76   -30748.293    240.18575   -1190.7529    92345.414   0.97182764    1265.4414 
  143500      1560000    -29027.49    242.65303    2169.1845   -31196.674   -30671.525    242.65303    -1220.731    92345.414   0.97182764    1269.0824 
  144000      1565000    -29074.19    238.03788    2127.9276   -31202.117   -30612.755    238.03788   -1142.4173    92345.414   0.97182764    1272.9204 
  144500      1570000   -29147.823    236.00915    2109.7919   -31257.615   -31248.293    236.00915    -1559.643    92345.414   0.97182764    1276.6582 
  145000      1575000   -29132.108    237.04498    2119.0516    -31251.16   -30943.882    237.04498   -1345.2804    92345.414   0.97182764    1280.2082 
  145500      1580000   -29238.364    238.04861    2128.0235   -31366.387   -30158.281    238.04861   -683.05774    92345.414   0.97182764    1284.1325 
  146000      1585000   -29208.927    239.77875      2143.49   -31352.417    -30869.91    239.77875    -1233.315    92345.414   0.97182764    1287.8393 
  146500      1590000   -29205.944    237.79888     2125.791   -31331.735   -30998.639    237.79888   -1331.1136    92345.414   0.97182764    1291.4558 
  147000      1595000   -29183.427    239.75845    2143.3085   -31326.736   -30739.891    239.75845   -1155.7066    92345.414   0.97182764    1294.9962 
  147500      1600000   -29229.037    235.21522    2102.6945   -31331.731   -30808.716    235.21522   -1172.9452    92345.414   0.97182764    1298.7748 
  148000      1605000    -29291.89    235.68824    2106.9231   -31398.813   -30756.515    235.68824   -1087.5148    92345.414   0.97182764    1302.3798 
  148500      1610000   -29363.417    227.56295    2034.2875   -31397.704   -30711.438    227.56295   -1000.9339    92345.414   0.97182764    1306.0379 
  149000      1615000   -29234.825    238.77584    2134.5245   -31369.349   -31183.828    238.77584   -1447.1761    92345.414   0.97182764    1309.7238 
  149500      1620000   -29344.158    225.10351    2012.3014   -31356.459   -30646.454    225.10351   -966.98245    92345.414   0.97182764    1313.2066 
  150000      1625000   -29320.376    231.63177    2070.6605   -31391.036   -31277.573    231.63177   -1453.2599    92345.414   0.97182764    1316.7381 
  150500      1630000    -29130.66     242.1432    2164.6269   -31295.286   -30606.499     242.1432   -1095.8419    92345.414   0.97182764    1320.3794 
  151000      1635000    -29312.12    235.22646    2102.7951   -31414.915    -30763.33    235.22646   -1077.5543    92345.414   0.97182764    1324.0866 
  151500      1640000   -29369.416    232.92596    2082.2298   -31451.646   -31185.206    232.92596   -1348.2619    92345.414   0.97182764    1327.6342 
  152000      1645000   -29446.474    225.98674     2020.197   -31466.671    -31189.52    225.98674   -1294.2487    92345.414   0.97182764    1331.4328 
  152500      1650000   -29523.711     230.8671    2063.8248   -31587.536   -30807.817     230.8671   -953.47534    92345.414   0.97182764    1335.1605 
  153000      1655000   -29417.182    228.85241    2045.8146   -31462.997   -31318.865    228.85241   -1412.0395    92345.414   0.97182764    1338.6823 
  153500      1660000   -29394.094    230.91504    2064.2533   -31458.347   -30947.691    230.91504   -1153.5782    92345.414   0.97182764    1342.2621 
  154000      1665000   -29478.831    230.50563    2060.5934   -31539.424   -30648.909    230.50563   -868.80778    92345.414   0.97182764    1346.1095 
  154500      1670000   -29433.173    227.10597    2030.2023   -31463.376   -31139.069    227.10597   -1266.6636    92345.414   0.97182764    1349.6315 
  155000      1675000   -29506.372    227.20315     2031.071   -31537.443   -31217.323    227.20315   -1270.4168    92345.414   0.97182764    1353.1568 
  155500      1680000    -29345.43    237.11301    2119.6597   -31465.089   -30810.037    237.11301   -1087.5018    92345.414   0.97182764    1356.8444 
  156000      1685000   -29477.794    232.71137    2080.3115   -31558.106   -30713.891    232.71137   -917.82778    92345.414   0.97182764     1360.376 
  156500      1690000   -29485.682    226.73473    2026.8837   -31512.566   -30878.337    226.73473   -1034.0755    92345.414   0.97182764    1363.9234 
  157000      1695000   -29475.126    230.61891     2061.606   -31536.732   -30899.973    230.61891   -1057.9785    92345.414   0.97182764    1367.5507 
  157500      1700000   -29517.579    227.86597    2036.9963   -31554.575   -31352.649    227.86597   -1362.5781    92345.414   0.97182764     1371.193 
  158000      1705000   -29591.866     224.0328    2002.7298   -31594.596   -30998.185     224.0328   -1044.2219    92345.414   0.97182764    1374.7296 
  158500      1710000   -29456.486    229.14626    2048.4414   -31504.928   -31143.726    229.14626   -1252.8112    92345.414   0.97182764    1378.1291 
  159000      1715000   -29485.009    225.69309    2017.5719   -31502.581   -30955.041    225.69309   -1091.5298    92345.414   0.97182764    1381.7389 
  159500      1720000   -29567.725    220.95995    1975.2603   -31542.986   -31449.338    220.95995   -1397.1369    92345.414   0.97182764    1385.6158 
  160000      1725000   -29574.582    227.23955    2031.3965   -31605.978   -31368.699    227.23955   -1332.1699    92345.414   0.97182764    1389.2019 
  160500      1730000   -29632.672     221.9416    1984.0357   -31616.707   -31544.467     221.9416   -1419.5479    92345.414   0.97182764    1392.8058 
  161000      1735000   -29606.699    225.98382    2020.1709    -31626.87   -31277.597    225.98382   -1240.6774    92345.414   0.97182764    1396.4437 
  161500      1740000   -29567.233    223.51301    1998.0832   -31565.316   -31114.005    223.51301   -1148.5108    92345.414   0.97182764    1399.9534 
  162000      1745000   -29530.633     227.4652    2033.4136   -31564.047    -30838.58     227.4652   -971.17777    92345.414   0.97182764    1403.5135 
  162500      1750000   -29724.621    223.26283    1995.8468   -31720.468   -31215.725    223.26283   -1107.1759    92345.414   0.97182764    1406.9405 
  163000      1755000   -29675.759    221.16774    1977.1178   -31652.877   -31218.836    221.16774   -1145.7667    92345.414   0.97182764    1410.4519 
  163500      1760000    -29802.94    221.28179    1978.1373   -31781.077   -30959.789    221.28179    -858.9845    92345.414   0.97182764    1413.8292 
  164000      1765000    -29697.31    227.40606    2032.8849   -31730.195   -30866.829    227.40606   -868.39285    92345.414   0.97182764    1417.4366 
  164500      1770000   -29694.642    220.30431    1969.3992   -31664.041   -31147.496    220.30431   -1078.7742    92345.414   0.97182764    1420.9288 
  165000      1775000   -29881.648    217.85819    1947.5322   -31829.181   -30982.405    217.85819   -817.33504    92345.414   0.97182764    1424.4794 
  165500      1780000    -29773.24    222.03537     1984.874   -31758.114    -31270.89    222.03537   -1112.0366    92345.414   0.97182764    1427.8605 
  166000      1785000   -29646.169    221.96471    1984.2422   -31630.411   -31030.587    221.96471     -1027.96    92345.414   0.97182764     1431.439 
  166500      1790000   -29762.253    219.83669     1965.219   -31727.472   -31067.712    219.83669   -969.33077    92345.414   0.97182764    1434.8828 
  167000      1795000   -29710.883    223.67599    1999.5401   -31710.423   -31120.834    223.67599   -1046.9184    92345.414   0.97182764    1438.4204 
  167500      1800000   -29868.435    219.45793    1961.8331   -31830.268   -31351.246    219.45793   -1101.0184    92345.414   0.97182764     1441.843 
  168000      1805000   -29808.447    218.67238    1954.8107   -31763.258   -31136.537    218.67238   -986.13447    92345.414   0.97182764    1445.3896 
  168500      1810000   -29770.047    217.41658    1943.5845   -31713.631   -30782.274    217.41658   -751.60036    92345.414   0.97182764    1448.8122 
  169000      1815000    -29912.72    222.55358    1989.5065   -31902.226    -31397.37    222.55358   -1102.3843    92345.414   0.97182764    1452.2615 
  169500      1820000   -29891.208    219.25215    1959.9935   -31851.201   -31217.734    219.25215   -984.97343    92345.414   0.97182764    1455.7036 
  170000      1825000   -29866.196    220.05081     1967.133   -31833.329   -30963.061    220.05081   -814.44562    92345.414   0.97182764    1459.0366 
  170500      1830000   -29871.616    220.27863    1969.1696   -31840.786   -31598.104    220.27863   -1281.9533    92345.414   0.97182764    1462.4451 
  171000      1835000   -29950.796    221.23893    1977.7542    -31928.55   -30946.097    221.23893   -739.03157    92345.414   0.97182764    1465.8505 
  171500      1840000   -29814.058    220.88908    1974.6267   -31788.685    -31080.68    220.88908   -940.49341    92345.414   0.97182764     1469.363 
  172000      1845000   -29905.885    222.05024    1985.0069   -31890.892    -31458.52    222.05024   -1152.8639    92345.414   0.97182764    1472.8581 
  172500      1850000   -29942.949    218.87212    1956.5962   -31899.546   -30760.638    218.87212   -607.15117    92345.414   0.97182764    1476.4413 
  173000      1855000   -29903.017    219.94376    1966.1761   -31869.193   -31130.844    219.94376   -911.68751    92345.414   0.97182764    1479.8109 
  173500      1860000   -29963.717    220.49462    1971.1004   -31934.817   -30732.702    220.49462   -570.98753    92345.414   0.97182764    1483.2495 
  174000      1865000   -29970.106    217.92288    1948.1105   -31918.217   -31379.229    217.92288   -1046.3036    92345.414   0.97182764    1486.8571 
  174500      1870000   -30084.378    217.21393     1941.773   -32026.151   -31095.578    217.21393   -750.83704    92345.414   0.97182764    1490.3233 
  175000      1875000   -30049.048    214.60583     1918.458   -31967.506   -31020.915    214.60583   -721.63178    92345.414   0.97182764    1493.5929 
  175500      1880000   -29975.325    221.74775    1982.3028   -31957.628   -30952.553    221.74775   -725.61205    92345.414   0.97182764    1497.0538 
  176000      1885000   -30011.929    219.66098    1963.6482   -31975.578   -31296.489    219.66098    -953.8125    92345.414   0.97182764     1500.448 
  176500      1890000   -29980.277     214.7017     1919.315   -31899.592   -31029.414     214.7017   -779.00638    92345.414   0.97182764    1503.7525 
  177000      1895000   -29942.005    216.38754    1934.3854    -31876.39    -31049.18    216.38754   -822.10105    92345.414   0.97182764    1507.2305 
  177500      1900000   -30066.822    213.25366    1906.3703   -31973.192   -31116.786    213.25366   -779.62086    92345.414   0.97182764    1510.5996 
  178000      1905000   -30045.725    214.89925     1921.081   -31966.806    -31342.18    214.89925   -962.64543    92345.414   0.97182764     1513.969 
  178500      1910000   -30138.947    211.95651    1894.7745   -32033.722   -31182.759    211.95651   -775.05214    92345.414   0.97182764     1517.239 
  179000      1915000   -30197.607    210.09727    1878.1539   -32075.761   -31312.905    210.09727   -828.13252    92345.414   0.97182764    1520.6972 
  179500      1920000   -30089.581    217.68638    1945.9964   -32035.577    -30731.26    217.68638   -476.45985    92345.414   0.97182764    1524.0027 
  180000      1925000   -30166.067     211.3329    1889.1998   -32055.266   -30922.559     211.3329   -561.71155    92345.414   0.97182764    1527.4344 
  180500      1930000   -30166.379    211.68501    1892.3474   -32058.727   -31498.835    211.68501   -989.37664    92345.414   0.97182764    1530.8696 
  181000      1935000   -30089.143    214.20445    1914.8698   -32004.013     -31359.5    214.20445   -943.26715    92345.414   0.97182764    1534.0835 
  181500      1940000   -30192.051     209.4285    1872.1755   -32064.226   -31164.483     209.4285   -722.05156    92345.414   0.97182764    1537.7998 
  182000      1945000   -30184.298    211.88955    1894.1759   -32078.474   -31481.341    211.88955   -963.08151    92345.414   0.97182764    1541.1034 
  182500      1950000   -30139.542    217.47907    1944.1431   -32083.685   -30860.032    217.47907   -534.97939    92345.414   0.97182764    1544.5072 
  183000      1955000   -30190.104    215.28719    1924.5489   -32114.653   -30973.857    215.28719   -581.95275    92345.414   0.97182764    1548.0114 
  183500      1960000   -30244.437    202.30956     1808.536   -32052.973   -31603.592    202.30956   -1009.2011    92345.414   0.97182764    1551.3076 
  184000      1965000   -30245.851    211.09247    1887.0505   -32132.901   -31247.108    211.09247   -743.45473    92345.414   0.97182764    1554.7134 
  184500      1970000   -30206.088    211.94424    1894.6648   -32100.753   -31062.727    211.94424   -636.07255    92345.414   0.97182764    1557.9191 
  185000      1975000   -30225.705    211.59239    1891.5195   -32117.225   -31377.896    211.59239    -855.5256    92345.414   0.97182764    1561.2092 
  185500      1980000   -30197.336    214.67405    1919.0678   -32116.404   -31316.221    214.67405   -830.79553    92345.414   0.97182764    1564.5671 
  186000      1985000   -30291.738    206.57616    1846.6771   -32138.415   -31356.595    206.57616   -790.67918    92345.414   0.97182764    1568.4321 
  186500      1990000   -30322.442    209.47425    1872.5844   -32195.026   -31445.952    209.47425   -834.23036    92345.414   0.97182764    1571.7798 
  187000      1995000   -30503.075    206.66595    1847.4798   -32350.555   -31149.384    206.66595   -479.89764    92345.414   0.97182764     1575.088 
  187500      2000000   -30450.585    209.26076     1870.676   -32321.261   -31165.432    209.26076   -530.78904    92345.414   0.97182764    1578.3574 
  188000      2005000   -30440.115    216.39782    1934.4773   -32374.592   -31192.197    216.39782    -558.4363    92345.414   0.97182764    1581.6145 
  188500      2010000   -30476.387    211.15025     1887.567   -32363.954   -31403.223    211.15025   -688.19518    92345.414   0.97182764    1584.7724 
  189000      2015000   -30563.492    209.01001    1868.4344   -32431.926   -31143.393    209.01001   -430.58919    92345.414   0.97182764    1587.9167 
  189500      2020000   -30653.391    208.37697    1862.7753   -32516.166    -31578.12    208.37697   -686.63063    92345.414   0.97182764    1591.0305 
  190000      2025000   -30662.674     201.4947    1801.2516   -32463.925   -30864.343     201.4947   -149.74341    92345.414   0.97182764    1594.0995 
  190500      2030000   -30724.591    207.04191    1850.8407   -32575.431   -31420.905    207.04191   -517.02829    92345.414   0.97182764    1597.4135 
  191000      2035000   -30684.414    212.99609    1904.0677   -32588.482   -31793.289    212.99609   -823.36271    92345.414   0.97182764    1600.5373 
  191500      2040000   -30582.105    208.54024    1864.2349    -32446.34   -31375.516    208.54024    -589.1245    92345.414   0.97182764    1603.6883 
  192000      2045000   -30680.439    207.10536    1851.4079   -32531.847   -31650.289    207.10536   -720.13415    92345.414   0.97182764    1606.8491 
  192500      2050000   -30674.453    202.05946    1806.3003   -32480.753   -31272.258    202.05946   -443.88275    92345.414   0.97182764    1609.9935 
  193000      2055000     -30679.1    206.67604      1847.57    -32526.67   -31437.585    206.67604   -563.19081    92345.414   0.97182764    1613.1406 
  193500      2060000   -30634.105    206.66577    1847.4782   -32481.583   -31736.694    206.66577    -818.6955    92345.414   0.97182764    1616.2734 
  194000      2065000   -30784.774    204.20043    1825.4394   -32610.214   -31527.056    204.20043   -551.15973    92345.414   0.97182764    1619.3082 
  194500      2070000   -30659.338    205.80012    1839.7398   -32499.077   -31538.322    205.80012   -652.66434    92345.414   0.97182764    1622.4764 
  195000      2075000   -30677.179    206.74198    1848.1594   -32525.338   -31511.637    206.74198   -619.60298    92345.414   0.97182764    1625.8237 
  195500      2080000    -30754.06    201.83313     1804.277   -32558.337   -31340.697    201.83313   -435.59036    92345.414   0.97182764    1628.9582 
  196000      2085000   -30783.609    201.13497    1798.0359   -32581.645   -31056.744    201.13497   -202.80793    92345.414   0.97182764    1632.1739 
  196500      2090000   -30725.673    202.21149    1807.6594   -32533.332    -31181.91    202.21149    -338.7659    92345.414   0.97182764    1635.3291 
  197000      2095000   -30763.303    202.85507    1813.4126   -32576.716   -31476.769    202.85507   -529.76304    92345.414   0.97182764    1638.5356 
  197500      2100000   -30799.408    199.22212    1780.9361   -32580.344   -31527.165    199.22212   -540.37481    92345.414   0.97182764    1641.5607 
  198000      2105000   -30779.711     200.0052    1787.9364   -32567.648   -31748.411     200.0052   -719.27986    92345.414   0.97182764    1644.5613 
  198500      2110000   -30843.188    201.69257    1803.0205   -32646.208   -31389.098    201.69257   -405.34998    92345.414   0.97182764    1647.5843 
  199000      2115000   -30835.081    200.85107     1795.498   -32630.579   -31695.756    200.85107   -639.06893    92345.414   0.97182764    1650.7273 
  199500      2120000   -30822.356    200.28271    1790.4171   -32612.773   -31397.175    200.28271   -426.81512    92345.414   0.97182764    1653.8415 
  200000      2125000   -30723.775    202.34195    1808.8256     -32532.6   -31624.768    202.34195   -669.00613    92345.414   0.97182764    1657.1325 
  200500      2130000   -30851.049    201.14653    1798.1392   -32649.188   -31556.691    201.14653    -523.9546    92345.414   0.97182764    1660.1488 
  201000      2135000   -30778.748    202.16954    1807.2844   -32586.033   -31407.622    202.16954   -466.95232    92345.414   0.97182764    1663.2639 
  201500      2140000   -30944.788    195.51425    1747.7897   -32692.577   -31534.172    195.51425   -437.62998    92345.414   0.97182764    1666.4223 
  202000      2145000   -30986.228    198.03308    1770.3067   -32756.535   -31369.759    198.03308   -284.78006    92345.414   0.97182764     1669.611 
  202500      2150000    -31043.05    195.30379    1745.9083   -32788.959   -31429.302    195.30379   -286.79971    92345.414   0.97182764    1672.7164 
  203000      2155000   -31052.825    193.76456    1732.1485   -32784.973   -31576.312    193.76456   -388.70007    92345.414   0.97182764    1675.6895 
  203500      2160000   -31016.598    197.86039     1768.763   -32785.361   -31528.227    197.86039   -379.89552    92345.414   0.97182764    1678.6061 
  204000      2165000   -31152.861    196.86369     1759.853   -32912.714   -31312.952    196.86369   -118.87106    92345.414   0.97182764    1681.5595 
  204500      2170000   -31137.138    197.76327    1767.8948   -32905.033    -31243.35    197.76327   -78.864103    92345.414   0.97182764    1685.2378 
  205000      2175000    -31079.19    198.64081    1775.7394   -32854.929   -31238.816    198.64081   -118.52589    92345.414   0.97182764    1688.4729 
  205500      2180000   -31100.934     198.1634    1771.4716   -32872.406   -31613.701     198.1634   -380.74013    92345.414   0.97182764    1692.2173 
  206000      2185000   -31123.437    197.16783    1762.5718   -32886.009   -31551.601    197.16783   -317.92023    92345.414   0.97182764     1695.318 
  206500      2190000   -31219.219     192.1517    1717.7304   -32936.949    -31597.98     192.1517   -281.23868    92345.414   0.97182764    1698.3639 
  207000      2195000   -31194.875    194.48239    1738.5655    -32933.44   -31382.384    194.48239   -139.22933    92345.414   0.97182764    1701.4041 
[...]
  439000      4515000   -34516.371    40.916578    365.77167   -34882.143   -35398.484    40.916578   -654.98725    92345.414   0.97182764    2886.7243 
  439500      4520000   -34527.415    40.703759    363.86919   -34891.284   -35492.456    40.703759   -716.56326    92345.414   0.97182764    2888.9385 
  440000      4525000     -34520.2    40.622793     363.1454   -34883.345   -35402.197    40.622793   -654.90136    92345.414   0.97182764    2891.1581 
  440500      4530000   -34515.099    41.366479    369.79354   -34884.893   -35414.765    41.366479   -668.02073    92345.414   0.97182764    2893.4585 
  441000      4535000   -34539.028    39.527859    353.35729   -34892.385   -35466.583    39.527859    -688.7291    92345.414   0.97182764    2895.5889 
  441500      4540000   -34553.981    38.847837    347.27827    -34901.26   -35481.087    38.847837   -688.39523    92345.414   0.97182764    2897.8543 
  442000      4545000   -34552.914    38.984748    348.50218   -34901.416   -35512.426    38.984748    -712.4579    92345.414   0.97182764    2900.0364 
  442500      4550000   -34555.419    38.156291    341.09623   -34896.515   -35521.208    38.156291   -717.11871    92345.414   0.97182764    2902.2143 
  443000      4555000   -34552.799    38.884084     347.6023   -34900.401   -35526.554    38.884084    -723.0338    92345.414   0.97182764    2904.3216 
  443500      4560000   -34575.721    37.659555    336.65568   -34912.377   -35625.949    37.659555   -779.81606    92345.414   0.97182764    2906.5593 
  444000      4565000   -34568.771    38.350285    342.83043   -34911.601   -35527.241    38.350285   -711.68446    92345.414   0.97182764    2908.7097 
  444500      4570000     -34599.4    36.874156    329.63465   -34929.034   -35594.619    36.874156   -738.97105    92345.414   0.97182764    2910.8472 
  445000      4575000   -34589.684    37.575181    335.90143   -34925.585   -35628.448    37.575181   -771.30453    92345.414   0.97182764    2913.0202 
  445500      4580000   -34585.582    37.726414    337.25336   -34922.835   -35562.983    37.726414   -725.74096    92345.414   0.97182764    2915.1528 
  446000      4585000   -34591.173    37.343447    333.82986   -34925.003   -35567.253    37.343447   -724.75991    92345.414   0.97182764    2917.6238 
  446500      4590000   -34604.917    36.642398    327.56286    -34932.48   -35595.423    36.642398   -735.47131    92345.414   0.97182764    2919.7945 
  447000      4595000   -34608.633    36.215831    323.74958   -34932.382   -35594.182    36.215831   -731.79136    92345.414   0.97182764    2921.9943 
  447500      4600000   -34617.842    35.675488    318.91922   -34936.761   -35578.108    35.675488   -713.01825    92345.414   0.97182764    2924.1826 
  448000      4605000   -34630.842    35.183363    314.51989   -34945.362   -35640.622    35.183363   -749.78269    92345.414   0.97182764     2926.364 
  448500      4610000   -34631.847    35.195174    314.62548   -34946.473   -35662.217    35.195174    -765.0716    92345.414   0.97182764    2928.5413 
  449000      4615000    -34642.39    34.050643      304.394   -34946.784   -35651.585    34.050643   -749.34814    92345.414   0.97182764    2930.6349 
  449500      4620000   -34641.242      34.2186    305.89544   -34947.138    -35674.19      34.2186   -766.98544    92345.414   0.97182764    2932.7838 
  450000      4625000   -34656.527    33.198221    296.77382   -34953.301   -35734.557    33.198221   -800.46011    92345.414   0.97182764    2934.9471 
  450500      4630000   -34654.344    34.008727    304.01929   -34958.364   -35659.905    34.008727      -746.65    92345.414   0.97182764    2937.1279 
  451000      4635000   -34667.828    32.810972    293.31202   -34961.141   -35693.372    32.810972   -761.48739    92345.414   0.97182764    2939.3252 
  451500      4640000   -34664.931     33.13346    296.19488   -34961.125    -35658.73     33.13346   -737.91672    92345.414   0.97182764    2941.4468 
  452000      4645000   -34654.388    32.959679    294.64138    -34949.03   -35639.446    32.959679   -731.42638    92345.414   0.97182764    2943.5307 
  452500      4650000   -34682.126    32.175777    287.63373    -34969.76   -35700.911    32.175777   -756.46922    92345.414   0.97182764    2945.6586 
  453000      4655000   -34687.503    32.117323    287.11119   -34974.614   -35736.308    32.117323   -778.76027    92345.414   0.97182764    2947.9051 
  453500      4660000   -34684.614    32.104561     286.9971   -34971.611   -35748.891    32.104561   -790.24828    92345.414   0.97182764    2950.0967 
  454000      4665000   -34688.255    31.951456    285.62842   -34973.884   -35739.874    31.951456   -780.84886    92345.414   0.97182764    2952.2695 
  454500      4670000   -34694.724    31.851206    284.73225   -34979.457   -35736.032    31.851206   -773.19258    92345.414   0.97182764    2954.3909 
  455000      4675000   -34711.875    30.966383    276.82241   -34988.697   -35753.529    30.966383    -773.4499    92345.414   0.97182764    2956.4972 
  455500      4680000   -34709.338    31.297271    279.78037   -34989.119   -35752.959    31.297271   -774.91022    92345.414   0.97182764    2958.6366 
  456000      4685000   -34713.502    30.002173     268.2029   -34981.705   -35727.572    30.002173   -752.96806    92345.414   0.97182764    2960.8007 
  456500      4690000   -34724.022    30.288488    270.76241   -34994.784   -35785.247    30.288488   -787.98178    92345.414   0.97182764    2962.9151 
  457000      4695000   -34729.087    29.128096    260.38914   -34989.476   -35772.828    29.128096   -774.99997    92345.414   0.97182764    2965.0535 
  457500      4700000   -34738.699    29.166194    260.72972   -34999.429   -35806.263    29.166194    -792.6886    92345.414   0.97182764    2967.1608 
  458000      4705000   -34747.624    28.522903    254.97904   -35002.603   -35819.244    28.522903   -795.70065    92345.414   0.97182764    2969.2883 
  458500      4710000   -34748.937    29.016121    259.38815   -35008.325   -35770.158    29.016121   -758.27796    92345.414   0.97182764    2971.4207 
  459000      4715000   -34747.043    28.925212    258.57547   -35005.619   -35824.485    28.925212   -800.02336    92345.414   0.97182764    2973.6217 
  459500      4720000   -34758.097    27.915617    249.55024   -35007.647   -35810.605    27.915617   -781.50934    92345.414   0.97182764    2975.9685 
  460000      4725000   -34769.322    27.281601    243.88249   -35013.205   -35825.668    27.281601   -784.35896    92345.414   0.97182764    2978.0793 
  460500      4730000   -34778.163    26.847224     239.9994   -35018.163   -35863.432    26.847224   -805.83516    92345.414   0.97182764      2980.23 
  461000      4735000   -34781.408    27.117032    242.41134   -35023.819    -35854.99    27.117032     -797.157    92345.414   0.97182764    2982.2995 
  461500      4740000   -34787.876    26.835568     239.8952   -35027.772   -35906.228    26.835568   -830.39931    92345.414   0.97182764     2984.555 
  462000      4745000   -34801.546    26.053119    232.90053   -35034.446   -35890.528    26.053119   -808.59262    92345.414   0.97182764    2986.7058 
  462500      4750000   -34798.166    25.902535     231.5544   -35029.721   -35889.047    25.902535    -810.0015    92345.414   0.97182764    2988.8713 
  463000      4755000   -34812.481    25.037473    223.82122   -35036.303   -35897.918    25.037473   -805.95962    92345.414   0.97182764    2990.9566 
  463500      4760000   -34817.866    25.000531    223.49098   -35041.357   -35920.808    25.000531   -818.95745    92345.414   0.97182764    2993.2069 
  464000      4765000   -34818.046    24.773654    221.46282   -35039.509   -35926.283    24.773654   -822.88903    92345.414   0.97182764    2995.3305 
  464500      4770000   -34829.827    23.752505    212.33432   -35042.161   -35959.748    23.752505   -838.99001    92345.414   0.97182764    2997.4127 
  465000      4775000   -34828.857    24.313347    217.34793   -35046.205   -35950.703    24.313347    -832.9947    92345.414   0.97182764    2999.5086 
  465500      4780000     -34833.3    24.128165    215.69251   -35048.993   -35956.351    24.128165   -833.88885    92345.414   0.97182764     3001.573 
  466000      4785000   -34841.654    23.382947    209.03067   -35050.684   -35976.852    23.382947   -842.90859    92345.414   0.97182764    3003.6664 
  466500      4790000   -34852.165    23.211613    207.49904   -35059.664   -35925.221    23.211613   -796.76651    92345.414   0.97182764    3006.1769 
  467000      4795000   -34854.175    23.478784     209.8874   -35064.063   -35960.268    23.478784   -821.29696    92345.414   0.97182764    3009.0024 
  467500      4800000   -34862.002    22.373439    200.00623   -35062.008   -35999.683    22.373439   -844.75196    92345.414   0.97182764    3012.2613 
  468000      4805000   -34869.389    22.047261    197.09037   -35066.479   -36043.542    22.047261    -871.8333    92345.414   0.97182764    3014.9652 
  468500      4810000   -34871.973    21.710044    194.07584   -35066.048   -36002.745    21.710044   -839.62236    92345.414   0.97182764      3017.18 
  469000      4815000    -34883.51    21.508671    192.27567   -35075.786   -36037.848    21.508671   -857.11979    92345.414   0.97182764     3020.211 
  469500      4820000   -34885.437    20.975896    187.51296    -35072.95   -36059.353    20.975896   -871.65752    92345.414   0.97182764    3023.0445 
  470000      4825000   -34893.498    21.028016    187.97889   -35081.477   -36040.506    21.028016   -851.67754    92345.414   0.97182764    3025.8655 
  470500      4830000   -34896.457     20.62664     184.3908   -35080.848   -36013.952     20.62664   -829.76391    92345.414   0.97182764    3028.7275 
  471000      4835000   -34900.255    20.603265    184.18185   -35084.437   -36045.587    20.603265   -850.43348    92345.414   0.97182764    3030.8778 
  471500      4840000   -34908.045    20.207371    180.64277   -35088.688   -36116.867    20.207371   -897.57598    92345.414   0.97182764    3033.0326 
  472000      4845000   -34914.966    19.412541    173.53742   -35088.503    -36056.34    19.412541   -847.49434    92345.414   0.97182764    3035.1305 
  472500      4850000   -34921.796     19.11336    170.86291   -35092.659   -36085.304     19.11336   -863.92868    92345.414   0.97182764     3037.508 
  473000      4855000   -34922.975     19.45096    173.88087   -35096.856    -36069.23     19.45096   -851.11815    92345.414   0.97182764    3039.6506 
  473500      4860000   -34932.149    18.652108    166.73958   -35098.888   -36108.757    18.652108   -873.65646    92345.414   0.97182764    3041.8015 
  474000      4865000   -34932.093    18.526198      165.614   -35097.707   -36134.653    18.526198     -892.926    92345.414   0.97182764    3043.9732 
  474500      4870000   -34947.174    17.887842    159.90745   -35107.082   -36080.576    17.887842   -841.57479    92345.414   0.97182764    3046.1203 
  475000      4875000   -34948.437    17.823394    159.33133   -35107.768   -36147.987    17.823394   -890.69106    92345.414   0.97182764    3048.2593 
  475500      4880000   -34955.829    17.341257    155.02129   -35110.851   -36121.174    17.341257   -865.29306    92345.414   0.97182764    3050.4987 
  476000      4885000    -34957.07    17.431791    155.83062   -35112.901   -36159.278    17.431791   -892.66477    92345.414   0.97182764    3052.6152 
  476500      4890000   -34970.545    16.542412    147.88006   -35118.425   -36166.638    16.542412   -888.12398    92345.414   0.97182764    3054.7308 
  477000      4895000   -34971.839    16.274971    145.48928   -35117.328   -36135.056    16.274971   -863.71345    92345.414   0.97182764    3056.8801 
  477500      4900000   -34979.895    16.209255    144.90181   -35124.797   -36209.682    16.209255   -913.14307    92345.414   0.97182764    3059.0112 
  478000      4905000   -34980.728    15.880393    141.96197    -35122.69   -36170.913    15.880393   -883.73766    92345.414   0.97182764    3061.0916 
  478500      4910000   -34995.573      14.9975    134.06939   -35129.642   -36204.461      14.9975   -897.62485    92345.414   0.97182764    3063.2463 
  479000      4915000   -34995.265    15.034155    134.39707   -35129.662   -36234.263    15.034155   -919.98206    92345.414   0.97182764    3065.3906 
  479500      4920000     -35005.5    14.705194    131.45633   -35136.957   -36215.082    14.705194   -898.13966    92345.414   0.97182764    3067.5052 
  480000      4925000   -35010.514    14.222701    127.14311   -35137.658   -36270.199    14.222701    -935.3426    92345.414   0.97182764    3069.6286 
  480500      4930000   -35012.683    14.281467    127.66845   -35140.352   -36247.262    14.281467   -916.70117    92345.414   0.97182764    3071.7242 
  481000      4935000   -35023.667    13.232389    118.29027   -35141.957   -36264.009    13.232389   -920.98013    92345.414   0.97182764    3073.9489 
  481500      4940000   -35027.635    13.440687    120.15234   -35147.787     -36282.3    13.440687   -931.61549    92345.414   0.97182764     3076.099 
  482000      4945000   -35035.387    13.086004    116.98167   -35152.368    -36283.82    13.086004   -926.98813    92345.414   0.97182764    3078.2705 
  482500      4950000   -35035.098    13.045528    116.61983   -35151.718   -36303.464    13.045528   -941.78829    92345.414   0.97182764    3080.4489 
  483000      4955000   -35047.532    12.427474    111.09477   -35158.626   -36315.031    12.427474   -941.14531    92345.414   0.97182764     3082.827 
  483500      4960000   -35051.359    12.128917    108.42584   -35159.785   -36321.414    12.128917   -943.04233    92345.414   0.97182764    3084.9972 
  484000      4965000   -35058.334    11.588684    103.59645   -35161.931   -36317.287    11.588684   -934.79932    92345.414   0.97182764    3087.0858 
  484500      4970000   -35065.238    11.270972    100.75629   -35165.994   -36328.019    11.270972   -937.64139    92345.414   0.97182764    3089.1229 
  485000      4975000    -35068.69    11.232027    100.40813   -35169.098    -36358.69    11.232027   -957.85208    92345.414   0.97182764    3091.1938 
  485500      4980000   -35078.232    10.594588    94.709787   -35172.942   -36342.292    10.594588   -938.59139    92345.414   0.97182764    3093.3494 
  486000      4985000   -35082.172    10.544731     94.26409   -35176.436   -36339.636    10.544731   -933.69331    92345.414   0.97182764    3095.6839 
  486500      4990000   -35089.687    9.9231985     88.70793   -35178.395   -36391.139    9.9231985   -966.35532    92345.414   0.97182764    3097.9122 
  487000      4995000   -35097.987    9.5142313    85.051988   -35183.039   -36393.542    9.5142313   -961.97683    92345.414   0.97182764    3100.0473 
  487500      5000000   -35100.178    9.4399443    84.387904   -35184.566   -36372.432    9.4399443   -944.67599    92345.414   0.97182764     3102.174 
  488000      5005000   -35106.374    8.9194242    79.734741   -35186.108    -36393.56    8.9194242   -955.76295    92345.414   0.97182764    3104.3842 
  488500      5010000   -35113.582    8.6750354     77.55004   -35191.132   -36433.737    8.6750354   -980.24302    92345.414   0.97182764    3106.5327 
  489000      5015000   -35118.471    8.3875132    74.979749   -35193.451     -36386.8    8.3875132   -941.76076    92345.414   0.97182764    3108.6273 
  489500      5020000   -35124.661    8.0371106    71.847343   -35196.508   -36389.298    8.0371106   -939.01955    92345.414   0.97182764     3110.697 
  490000      5025000   -35132.687    7.7882616     69.62277    -35202.31   -36441.166    7.7882616   -971.57262    92345.414   0.97182764    3112.8293 
  490500      5030000   -35136.202     7.425243    66.377583   -35202.579   -36425.473     7.425243   -957.31109    92345.414   0.97182764    3114.9503 
  491000      5035000   -35142.428    7.1691209    64.087993   -35206.516    -36476.38    7.1691209   -990.48759    92345.414   0.97182764    3117.0285 
  491500      5040000   -35148.952    6.6990787    59.886074   -35208.838   -36478.567    6.6990787   -987.26708    92345.414   0.97182764    3119.1516 
  492000      5045000   -35155.022    6.4018809     57.22929   -35212.251   -36461.903    6.4018809   -970.38688    92345.414   0.97182764    3121.2677 
  492500      5050000   -35160.897    5.9934356    53.578014   -35214.475   -36465.904    5.9934356   -968.99491    92345.414   0.97182764    3123.3653 
  493000      5055000   -35167.458    5.7313888     51.23546   -35218.694   -36477.271    5.7313888    -972.5635    92345.414   0.97182764    3125.6106 
  493500      5060000   -35172.521    5.3601137    47.916465   -35220.438   -36502.109    5.3601137   -987.24733    92345.414   0.97182764    3127.1221 
  494000      5065000   -35179.012    5.0435217    45.086307   -35224.098    -36504.36    5.0435217   -984.09866    92345.414   0.97182764    3128.4176 
  494500      5070000   -35184.839    4.5975326    41.099409   -35225.938   -36508.155    4.5975326   -982.58979    92345.414   0.97182764     3129.838 
  495000      5075000   -35190.727    4.4407606    39.697955   -35230.425    -36527.22    4.4407606    -992.3745    92345.414   0.97182764    3131.6135 
  495500      5080000   -35196.578    4.1309752    36.928644   -35233.507   -36516.654    4.1309752   -980.18426    92345.414   0.97182764    3133.1459 
  496000      5085000   -35202.234    3.6926154    33.009948   -35235.244   -36535.776    3.6926154   -990.18292    92345.414   0.97182764    3134.4694 
  496500      5090000   -35208.168     3.433985    30.697935   -35238.866   -36529.604     3.433985   -981.19445    92345.414   0.97182764    3135.7497 
  497000      5095000   -35213.945    3.0856862    27.584335   -35241.529    -36552.87    3.0856862      -994.18    92345.414   0.97182764    3137.0089 
  497500      5100000   -35219.746    2.7966488      25.0005   -35244.746   -36563.875    2.7966488   -998.04421    92345.414   0.97182764    3138.3987 
  498000      5105000   -35225.458     2.456517    21.959909   -35247.418   -36577.132     2.456517   -1003.6464    92345.414   0.97182764    3139.8341 
  498500      5110000   -35231.178    2.1711385    19.408782   -35250.586   -36588.878    2.1711385   -1008.1209    92345.414   0.97182764     3141.289 
  499000      5115000   -35236.811    1.8347206    16.401392   -35253.213   -36599.064    1.8347206   -1011.5014    92345.414   0.97182764    3142.5784 
  499500      5120000   -35242.379    1.5273965    13.654084   -35256.033   -36610.941    1.5273965   -1016.1864    92345.414   0.97182764    3143.8296 
  500000      5125000   -35247.866    1.2373752    11.061453   -35258.927   -36618.158    1.2373752   -1017.4707    92345.414   0.97182764    3145.1396 
Loop time of 3145.14 on 2 procs for 500000 steps with 3000 atoms

Performance: 137.355 ns/day, 0.175 hours/ns, 158.975 timesteps/s
85.0% CPU use with 2 MPI tasks x no OpenMP threads

MPI task timing breakdown:
Section |  min time  |  avg time  |  max time  |%varavg| %total
---------------------------------------------------------------
Pair    | 2595.2     | 2610.1     | 2625       |  29.2 | 82.99
Neigh   | 136.27     | 136.84     | 137.4      |   4.8 |  4.35
Comm    | 343.57     | 358.97     | 374.36     |  81.3 | 11.41
Output  | 0.80167    | 0.8408     | 0.87993    |   4.3 |  0.03
Modify  | 31.522     | 31.56      | 31.598     |   0.7 |  1.00
Other   |            | 6.82       |            |       |  0.22

Nlocal:    1500 ave 1505 max 1495 min
Histogram: 1 0 0 0 0 0 0 0 0 1
Nghost:    2230 ave 2234 max 2226 min
Histogram: 1 0 0 0 0 0 0 0 0 1
Neighs:    0 ave 0 max 0 min
Histogram: 2 0 0 0 0 0 0 0 0 0
FullNghs:  43866 ave 44024 max 43708 min
Histogram: 1 0 0 0 0 0 0 0 0 1

Total # of neighbors = 87732
Ave neighs/atom = 29.244
Neighbor list builds = 33855
Dangerous builds = 22981

Total wall time: 0:56:17
