LAMMPS (11 Aug 2017)
####################################################################################
# External variables that have to be passed on call
# Temperature 	= temperature of the system
# trjFile	= name of the .xtc trajectory file
# dataFile	= name of the .data input for Lammps
# nRand		= random number as seed for the velocity creation
# Timestep	= timestep in fs
# Eps		= LJ epsilon of mW C interaction
# Sigma		= LJ epsilon of mW C interaction
# nTimesteps	= number of timesteps to run
# nStride       = stride of thermo and trajectory output
# pass variables to the script via ${variable_name}
#####################################################################################
units          real #read on lammps how this defines the units for energy, forces etc.
dimension      3 #simulation simension. 3D
newton         on
processors     * * 1 #(x y z) sets how splits into box between processors, * does auto
boundary       p p m #(x y z) periodic boundary conditions
atom_style     atomic #sets "style" of atoms being used in simulation. i.e. what attributes the atoms have (bonds, angles, spin..)
box tilt large
read_data      ${dataIN} #system set up, ie. type 1 and 2 atoms at certain positions and velocities
read_data      hetero111.data 
  triclinic box = (-9.348 3.51633 -22.398) to (34.71 41.6717 127.602) with tilt (-22.029 0 0)
  2 by 1 by 1 MPI processor grid
  reading atoms ...
  6500 atoms
#..but this file doesn't contain masses so need line below
####################################################################################
#mass - tell lammps atom masses. syntax: mass atom-type value
mass           1 18.015
mass           2 12.011

#groups - set the atoms in the simulation to belong to groups
#syntax: group "group name" type n
#set the groups by assigning "atom types" to them
group          mW 	type 1 #makes a group called "mW" (ie H20) from all type 1 atoms, which are
6000 atoms in group mW
#..defined in the file read by read_data
group          OH        type 2 #same but for the surface (type 2 is defined by read_data file)
500 atoms in group OH

#set up interaction between the groups
pair_style sw #sw = stilinger-weber potential
pair_coeff * * ./mW-OH.sw mW OH  #file mW-OH.sw has potential definition in. Tell lammps to use this between group mW and OH defined above

#another interaction example - here set up Lenard-Jones interation between type 1 and type 2 atoms, then interaction between type 2 and type 2. You would also need a water-water interaction
#pair_coeff 1 2 lj/cut ${Eps} ${Sigma} # e.g. surface-water interaction
#pair_coeff 2 2 lj/cut 0.0    ${Sigma} # e.g. surface-surface interaction (set to zero strength for a surface of frozen atoms)


neighbor       2.0 bin

timestep       ${Timestep} #timestep for the equations of motion - Very important! Careful to use appropriate value for the model you are using
timestep       10 
min_style      cg #minimisation algrothim that will be used in any minimize command given to lammps
run_style      verlet #algorithm for the equations of motion "velocity-verlet" algorithm used

#make sure compute the correct temp. exclude the stationary surface
#syntax: compute name group attribute
compute        mWtemp mW temp #so mWtemp is the name we've given to temperature of the mW group (i.e. water) -> call in thermo_style with c_mWtemp

thermo         $(v_psStride*1000/v_Timestep) #how often outputs thermodynamic info. We don't want every timestep - too much information. Set up here so get information every v_psStride picoseconds
thermo         1000 
#thermo style: thermodynamic input - shown as table of values specified
thermo_style   custom step time etotal c_mWtemp ke pe enthalpy temp press vol density cpu
thermo_modify  flush yes

####################################################################################
fix fZwalls all wall/reflect zhi EDGE #reflecting wall at top of sim - in case of evapouration
fix fMin OH setforce 0 0 0 #ensure forces between frozen surface are zero

#set wall for bottom of simulation - don't worry about
fix wallz mW wall/lj93 zlo 0.001 0.5 2  5
fix_modify wallz energy yes


############running a simulation######################################################
#1) the dump command tells lammps to save the positions and velocities of atoms - these can then be watched as a "trajectory" in the trajectoryfile ${trjFile}
#Put dump command where you wish to view from

dump d1 all xtc $(v_psStride*1000/v_Timestep) ${trjFile}
dump d1 all xtc 1000 ${trjFile}
dump d1 all xtc 1000 ./test1.xtc

#####equilibration phase of simulation####
#1st we minimised our setup - this gets us towards minimum energy config - stops the simulation exploding from the start from huge forces etc (e.g. if two atoms were very close together the force would be huge between them -> meaning they leave the box between one timestep and the other -> simulation crashes
#syntax: minimiza etol ftol maxiter maxeval - see lammps documentation self-explanatory
minimize 1e-13 1e-15 5000 50000
WARNING: Using 'neigh_modify every 1 delay 0 check yes' setting during minimization (../min.cpp:168)
Neighbor list info ...
  update every 1 steps, delay 0 steps, check yes
  max neighbors/atom: 2000, page size: 100000
  master list distance cutoff = 6.09869
  ghost atom cutoff = 6.09869
  binsize = 3.04935, bins = 22 13 50
  1 neighbor lists, perpetual/occasional/extra = 1 0 0
  (1) pair sw, perpetual
      attributes: full, newton on
      pair build: full/bin/atomonly
      stencil: full/bin/3d
      bin: standard
Per MPI rank memory allocation (min/avg/max) = 4.857 | 4.858 | 4.86 Mbytes
Step Time TotEng c_mWtemp KinEng PotEng Enthalpy Temp Press Volume Density CPU 
       0            0    4434704.3            0            0    4434704.3     10843032            0    1742598.7    252157.23   0.75135668            0 
    1000        10000   -67946.384            0            0   -67946.384   -66405.545            0    418.99592    252157.23   0.75135668    25.492424 
    1934        19340   -68125.637            0            0   -68125.637    -67170.01            0    259.86109    252157.23   0.75135668     48.54941 
Loop time of 48.5495 on 2 procs for 1934 steps with 6500 atoms

91.8% CPU use with 2 MPI tasks x no OpenMP threads

Minimization stats:
  Stopping criterion = linesearch alpha is zero
  Energy initial, next-to-last, final = 
         4434704.31665     -68125.6374545     -68125.6374545
  Force two-norm initial, final = 2.83327e+07 0.0743277
  Force max component initial, final = 9.7318e+06 0.0161211
  Final line search alpha, max atom move = 1.90735e-06 3.07486e-08
  Iterations, force evaluations = 1934 3175

MPI task timing breakdown:
Section |  min time  |  avg time  |  max time  |%varavg| %total
---------------------------------------------------------------
Pair    | 45.503     | 45.543     | 45.583     |   0.6 | 93.81
Neigh   | 0.67087    | 0.68256    | 0.69425    |   1.4 |  1.41
Comm    | 1.746      | 1.7555     | 1.765      |   0.7 |  3.62
Output  | 0.000942   | 0.0009555  | 0.000969   |   0.0 |  0.00
Modify  | 0.049933   | 0.05472    | 0.059507   |   2.0 |  0.11
Other   |            | 0.5128     |            |       |  1.06

Nlocal:    3250 ave 3257 max 3243 min
Histogram: 1 0 0 0 0 0 0 0 0 1
Nghost:    3804.5 ave 3817 max 3792 min
Histogram: 1 0 0 0 0 0 0 0 0 1
Neighs:    0 ave 0 max 0 min
Histogram: 2 0 0 0 0 0 0 0 0 0
FullNghs:  97588 ave 97690 max 97486 min
Histogram: 1 0 0 0 0 0 0 0 0 1

Total # of neighbors = 195176
Ave neighs/atom = 30.0271
Neighbor list builds = 81
Dangerous builds = 0

########set up gaussian velocities at a temp for the mW group##########
#just some initial configuration from which to start
velocity mW create ${T0} ${nRand} dist gaussian mom yes rot yes #initial set up, with random number
velocity mW create 300 ${nRand} dist gaussian mom yes rot yes 
velocity mW create 300 6492 dist gaussian mom yes rot yes 

##############equilibration###############
# - important step - once potential energy of system has a small variance then equilibrated system
#fix nvt command: runs nvt simulation (contstant number of particles, volume and controlled temperature)
#syntax: fix fixID groupID style-name keywords..
#keywords here are temp and tchain. temp: 3 arguements - start temp of sim, end temp of sim. temp damping parameter (how rapidly temperature is relaxed). tchain: one arguement - chain length
#This is all to do with the thermostat the simulation uses. Nose-Hoover style. Read info on lammps and elsewhere if want to properly understand. These are set up appropraitely so just use values here. Do at a contant temperature

timestep $(v_Timestep/2) #use half timestep for equilibration
timestep 5 
fix f1 mW nvt temp ${T0} ${T0} $(100*v_Timestep/2) tchain 10
fix f1 mW nvt temp 300 ${T0} $(100*v_Timestep/2) tchain 10
fix f1 mW nvt temp 300 300 $(100*v_Timestep/2) tchain 10
fix f1 mW nvt temp 300 300 500 tchain 10
fix_modify f1 temp mWtemp #makes temp become mWtemp - i.e. thermostat acts on the water
WARNING: Temperature for fix modify is not for group all (../fix_nh.cpp:1395)
run $(50*1000/v_Timestep*2) #rough rule for how long need to equilibrate for a timestep
run 10000 
Per MPI rank memory allocation (min/avg/max) = 3.734 | 3.734 | 3.735 Mbytes
Step Time TotEng c_mWtemp KinEng PotEng Enthalpy Temp Press Volume Density CPU 
    1934            0   -62761.074          300    5364.5638   -68125.637    -58229.07    276.91953    1232.3751    252157.23   0.75135668            0 
    2000          330   -62567.822    148.00464    2646.6011   -65214.423     -56834.9    136.61792    1558.9377    252157.23   0.75135668      0.90597 
    3000         5330   -59078.882    231.58515    4141.1777   -63220.059   -60139.505    213.76817   -288.41227    252157.23   0.75135668    13.633193 
    4000        10330   -56120.441    278.65001    4982.7858   -61103.227   -59686.458    257.21209   -969.69717    252157.23   0.75135668    25.122803 
    5000        15330   -55340.705    296.08444    5294.5462   -60635.252   -55570.244    273.30521   -62.417816    252157.23   0.75135668     38.42081 
    6000        20330   -55131.139    303.88531    5434.0406    -60565.18    -52732.23    280.50592    652.32869    252157.23   0.75135668    52.958839 
    7000        25330   -55125.992    298.35004    5335.0595   -60461.052   -55784.827    275.39651   -179.15508    252157.23   0.75135668    66.122999 
    8000        30330   -55002.014     296.1998    5296.6092   -60298.623   -56816.814     273.4117   -493.49349    252157.23   0.75135668    78.967618 
    9000        35330   -55310.501    296.84491    5308.1449   -60618.646   -55205.593    274.00717    28.527327    252157.23   0.75135668    91.586204 
   10000        40330   -55220.091     299.1895    5350.0706   -60570.162   -54015.273    276.17138    327.62297    252157.23   0.75135668    104.37899 
   11000        45330   -55048.229    296.60787    5303.9062   -60352.136   -56035.491    273.78837   -268.46329    252157.23   0.75135668    117.14395 
   11934        50000    -55065.57    301.92745    5399.0303     -60464.6   -56044.455    278.69869   -266.18544    252157.23   0.75135668    128.67375 
Loop time of 128.677 on 2 procs for 10000 steps with 6500 atoms

Performance: 33.572 ns/day, 0.715 hours/ns, 77.714 timesteps/s
97.2% CPU use with 2 MPI tasks x no OpenMP threads

MPI task timing breakdown:
Section |  min time  |  avg time  |  max time  |%varavg| %total
---------------------------------------------------------------
Pair    | 117.79     | 118.35     | 118.9      |   5.1 | 91.97
Neigh   | 5.5143     | 5.5938     | 5.6733     |   3.4 |  4.35
Comm    | 2.9139     | 3.3925     | 3.8711     |  26.0 |  2.64
Output  | 0.010634   | 0.012448   | 0.014261   |   1.6 |  0.01
Modify  | 1.0843     | 1.0934     | 1.1025     |   0.9 |  0.85
Other   |            | 0.2392     |            |       |  0.19

Nlocal:    3250 ave 3261 max 3239 min
Histogram: 1 0 0 0 0 0 0 0 0 1
Nghost:    3769 ave 3779 max 3759 min
Histogram: 1 0 0 0 0 0 0 0 0 1
Neighs:    0 ave 0 max 0 min
Histogram: 2 0 0 0 0 0 0 0 0 0
FullNghs:  95411 ave 95550 max 95272 min
Histogram: 1 0 0 0 0 0 0 0 0 1

Total # of neighbors = 190822
Ave neighs/atom = 29.3572
Neighbor list builds = 731
Dangerous builds = 1

####example of npt run - constant pressure instead of volume. System volume will change with time####
##this will likely be necessary for your simulation. If doing bulk liquid (i.e. periodic b.c in xy&z) then need appropraite density - equilibrate with npt then do production run nvt in this case.
#timestep $(v_Timestep/2)
#fix f1 mW npt temp 275 275 $(100*v_Timestep/2) tchain 10 iso 1.0 1.0 $(1000*v_Timestep/2) pchain 10
#fix_modify f1 temp mWtemp
#run $(50*1000/v_Timestep*2)


########production run##########
#after equilibrated - this is the data and trajectory you want as the results
#pass different T0 and T1 to cool as the sim goes -> "cooling ramp" simulation
#Max temperature change rate you should use for mW model is 0.5K/ns - so run simulation for long enough to obey this rule. i.e. 275K to 265K should be a 20ns simulation
unfix f1 #have to unfix the previous fix
fix f2 mW nvt temp ${T0} ${T1} $(100*v_Timestep) tchain 10
fix f2 mW nvt temp 300 ${T1} $(100*v_Timestep) tchain 10
fix f2 mW nvt temp 300 273 $(100*v_Timestep) tchain 10
fix f2 mW nvt temp 300 273 1000 tchain 10
fix_modify f2 temp mWtemp #makes temp become mWtemp -> have to do everytime
WARNING: Temperature for fix modify is not for group all (../fix_nh.cpp:1395)

#dump d1 all xtc $(v_psStride*1000/v_Timestep) ${trjFile} #uncomment to just watch production run
reset_timestep 0
run 0
Per MPI rank memory allocation (min/avg/max) = 3.735 | 3.735 | 3.736 Mbytes
Step Time TotEng c_mWtemp KinEng PotEng Enthalpy Temp Press Volume Density CPU 
       0        50000    -55065.57    301.92745    5399.0303     -60464.6   -56044.455    278.69869   -266.18544    252157.23   0.75135668            0 
Loop time of 4e-06 on 2 procs for 0 steps with 6500 atoms

75.0% CPU use with 2 MPI tasks x no OpenMP threads

MPI task timing breakdown:
Section |  min time  |  avg time  |  max time  |%varavg| %total
---------------------------------------------------------------
Pair    | 0          | 0          | 0          |   0.0 |  0.00
Neigh   | 0          | 0          | 0          |   0.0 |  0.00
Comm    | 0          | 0          | 0          |   0.0 |  0.00
Output  | 0          | 0          | 0          |   0.0 |  0.00
Modify  | 0          | 0          | 0          |   0.0 |  0.00
Other   |            | 4e-06      |            |       |100.00

Nlocal:    3250 ave 3261 max 3239 min
Histogram: 1 0 0 0 0 0 0 0 0 1
Nghost:    3769 ave 3779 max 3759 min
Histogram: 1 0 0 0 0 0 0 0 0 1
Neighs:    0 ave 0 max 0 min
Histogram: 2 0 0 0 0 0 0 0 0 0
FullNghs:  95411 ave 95550 max 95272 min
Histogram: 1 0 0 0 0 0 0 0 0 1

Total # of neighbors = 190822
Ave neighs/atom = 29.3572
Neighbor list builds = 0
Dangerous builds = 0

#set simulation to run
timestep ${Timestep}
timestep 10
run $(v_nsRunTime*1000000/v_Timestep) #nsRuntime -> how long sim will run in nanoseconds
run 100000 
Per MPI rank memory allocation (min/avg/max) = 3.735 | 3.735 | 3.736 Mbytes
Step Time TotEng c_mWtemp KinEng PotEng Enthalpy Temp Press Volume Density CPU 
       0        50000    -55065.57    301.92745    5399.0303     -60464.6   -56044.455    278.69869   -266.18544    252157.23   0.75135668            0 
    1000        60000   -55066.481    301.10575    5384.3368   -60450.818   -55097.549    277.94021   -8.4482064    252157.23   0.75135668    12.299463 
    2000        70000   -54979.746     300.9723    5381.9504   -60361.696   -55156.023    277.81702   -47.934422    252157.23   0.75135668    24.074931 
    3000        80000   -55145.805    296.88743    5308.9052    -60454.71   -55451.928    274.04642   -83.243079    252157.23   0.75135668    35.926078 
    4000        90000    -54878.49    301.74739    5395.8104     -60274.3    -54813.99    278.53248    17.539305    252157.23   0.75135668    47.720844 
    5000       100000   -54932.159    303.71811    5431.0506    -60363.21    -55576.79    280.35158    -175.2926    252157.23   0.75135668    59.621101 
    6000       110000   -55066.995    300.03264    5365.1475   -60432.143   -55998.339    276.94966   -253.25789    252157.23   0.75135668    71.368831 
    7000       120000   -55174.686    297.75907    5324.4918   -60499.177   -55124.819      274.851    13.560191    252157.23   0.75135668    83.208536 
    8000       130000   -55036.302    302.38604    5407.2306   -60443.532   -55560.377    279.12199    -142.5104    252157.23   0.75135668    94.946391 
    9000       140000   -55366.491    295.55504    5285.0797   -60651.571   -55381.645    272.81654   -4.1207171    252157.23   0.75135668    106.88259 
   10000       150000   -55350.608    301.56756    5392.5947   -60743.203   -54496.737    278.36648    232.19084    252157.23   0.75135668    118.58417 
   11000       160000   -55244.227    296.82837    5307.8491   -60552.076   -56292.893    273.99191   -285.16086    252157.23   0.75135668    130.35349 
   12000       170000   -55341.087    298.13642    5331.2396   -60672.327   -55437.199    275.19932   -26.135421    252157.23   0.75135668    141.91716 
   13000       180000   -55170.402    302.00889    5400.4866   -60570.888    -56315.44    278.77386   -311.36711    252157.23   0.75135668    153.68075 
   14000       190000   -55426.941    299.49591    5355.5497   -60782.491   -54461.017    276.45422    262.66108    252157.23   0.75135668    165.45835 
   15000       200000   -55406.833    294.01992    5257.6287   -60664.462   -55954.009    271.39952   -148.79221    252157.23   0.75135668    177.16904 
   16000       210000   -55382.052    295.44104    5283.0411   -60665.093   -55697.268    272.71131   -85.715766    252157.23   0.75135668    189.03034 
   17000       220000   -55566.901    295.22173    5279.1195    -60846.02     -55263.6    272.50887    82.475836    252157.23   0.75135668     200.5341 
   18000       230000   -55353.011    294.95276    5274.3098   -60627.321   -54873.153     272.2606    130.48639    252157.23   0.75135668    212.25539 
   19000       240000   -55463.969    291.12782    5205.9126   -60669.882   -55587.327    268.72993   -33.544234    252157.23   0.75135668    224.03427 
   20000       250000   -55314.501    303.21649    5422.0808   -60736.582     -55219.3    279.88856    25.887698    252157.23   0.75135668    235.74816 
   21000       260000   -55505.525    293.84942    5254.5799   -60760.105    -56596.33    271.24214   -296.61951    252157.23   0.75135668    247.38836 
   22000       270000   -55275.542    299.57831    5357.0232   -60632.565   -55132.907    276.53028    38.786205    252157.23   0.75135668    259.24409 
   23000       280000   -55528.585    299.27308    5351.5651    -60880.15   -54807.096    276.24853    196.19249    252157.23   0.75135668    270.98633 
   24000       290000   -55637.658    291.44843    5211.6457   -60849.304   -55440.951    269.02587    53.490223    252157.23   0.75135668    282.85794 
   25000       300000   -55596.493    290.79984    5200.0477   -60796.541   -55848.729    268.42718   -68.589765    252157.23   0.75135668     294.3752 
   26000       310000   -55680.875    292.18544    5224.8248     -60905.7   -56175.676    269.70618   -134.54972    252157.23   0.75135668    306.18132 
   27000       320000   -55693.139    292.86971    5237.0609     -60930.2   -56078.291    270.33781   -104.73333    252157.23   0.75135668     317.9224 
   28000       330000   -55555.435    290.82281    5200.4584   -60755.893   -56437.429    268.44838   -239.83831    252157.23   0.75135668    329.59384 
   29000       340000   -55537.891    292.23543    5225.7187    -60763.61   -55604.837    269.75232   -18.204328    252157.23   0.75135668    341.34316 
   30000       350000   -55547.191    294.09428    5258.9585   -60806.149   -55121.403    271.46817    115.78316    252157.23   0.75135668    352.97275 
   31000       360000   -55560.724    291.50824    5212.7152   -60773.439   -55763.897    269.08108   -55.248524    252157.23   0.75135668    364.82362 
   32000       370000   -55713.325    295.05872    5276.2044    -60989.53   -56050.775     272.3584   -91.761734    252157.23   0.75135668    376.41764 
   33000       380000   -55588.048    293.58449    5249.8424   -60837.891   -56043.577    270.99759   -123.87072    252157.23   0.75135668    387.87489 
   34000       390000   -55550.712    289.92527    5184.4087    -60735.12   -56576.661    267.61989   -278.98342    252157.23   0.75135668    399.76643 
   35000       400000   -55752.141    287.32402    5137.8934   -60890.035     -55695.9    265.21877    15.293621    252157.23   0.75135668    411.60956 
   36000       410000   -55651.272    292.58043     5231.888    -60883.16   -55731.847    270.07078   -21.910694    252157.23   0.75135668     423.3074 
   37000       420000    -55566.62    288.66402    5161.8553   -60728.475   -56409.055    266.45568   -229.08108    252157.23   0.75135668    434.98595 
   38000       430000   -55872.674    284.49876    5087.3726   -60960.047   -55883.483    262.61087   -2.9392499    252157.23   0.75135668    446.49467 
   39000       440000   -55766.944    291.86011    5219.0073   -60985.951   -56567.787    269.40588   -217.77097    252157.23   0.75135668      458.742 
   40000       450000   -55803.353    287.28937    5137.2739   -60940.627   -55611.147    265.18679     52.26601    252157.23   0.75135668    470.45835 
   41000       460000   -55805.053    288.20544    5153.6549   -60958.708   -55946.768    266.03238   -38.536088    252157.23   0.75135668    482.28754 
   42000       470000   -55783.842    290.53069    5195.2348   -60979.077   -56989.433    268.17874    -327.8331    252157.23   0.75135668    494.03663 
   43000       480000   -55709.493     285.8361    5111.2867   -60820.779    -56924.68    263.84533   -330.44257    252157.23   0.75135668    505.75649 
   44000       490000   -55779.442    291.28221    5208.6734   -60988.115   -55638.494    268.87244     38.32747    252157.23   0.75135668    517.44273 
   45000       500000    -55774.62     287.7578    5145.6503   -60920.271    -55990.88    265.61918   -58.806988    252157.23   0.75135668    529.24555 
   46000       510000   -55762.202    286.02494    5114.6636   -60876.866   -55770.353    264.01964   -2.2164569    252157.23   0.75135668    541.04174 
   47000       520000   -55807.868    288.20914    5153.7212   -60961.589   -55947.981     266.0358   -38.100592    252157.23   0.75135668    552.64405 
   48000       530000   -55938.526    286.12111    5116.3832    -61054.91    -56640.46    264.10841   -190.87474    252157.23   0.75135668    564.81403 
   49000       540000    -55659.58    292.22819    5225.5892   -60885.169   -54909.443    269.74564    203.98271    252157.23   0.75135668    576.40902 
   50000       550000   -55868.977    288.88888    5165.8762   -61034.854   -55600.974    266.66324    72.877386    252157.23   0.75135668    588.87527 
   51000       560000    -55920.68    283.83517    5075.5064   -60996.187    -56341.52    261.99834   -114.43783    252157.23   0.75135668    600.54214 
   52000       570000   -55897.737    283.11051     5062.548   -60960.285   -55376.118    261.32942    141.84249    252157.23   0.75135668    612.47953 
   53000       580000   -55992.613    281.28827     5029.963   -61022.576   -55419.007    259.64738    155.97921    252157.23   0.75135668     624.1407 
   54000       590000   -55846.818    286.24295    5118.5619    -60965.38    -55512.26    264.22087     90.97546    252157.23   0.75135668    636.15326 
   55000       600000    -55886.33    282.05964    5043.7566   -60930.086   -56903.056    260.35941    -276.4757    252157.23   0.75135668    647.83083 
   56000       610000   -56108.774    283.74578    5073.9078   -61182.681   -55782.111    261.91582    88.828412    252157.23   0.75135668    659.43831 
   57000       620000   -55993.375    281.33793     5030.851   -61024.226   -56812.162    259.69322   -222.65041    252157.23   0.75135668    671.01486 
   58000       630000   -56045.904     280.0612    5008.0206   -61053.925   -55926.848    258.51472    32.374486    252157.23   0.75135668    682.58104 
   59000       640000   -55959.019     283.6969    5073.0338   -61032.053   -55987.891    261.87071   -7.8511501    252157.23   0.75135668     694.1216 
   60000       650000   -55870.614    288.94763    5166.9267   -61037.541    -55965.52    266.71747   -25.807448    252157.23   0.75135668    706.00295 
   61000       660000   -55944.285    289.50187    5176.8376   -61121.123   -55901.135    267.22907    11.733688    252157.23   0.75135668    717.54113 
   62000       670000   -55987.256    281.87387    5040.4346    -61027.69   -56304.013    260.18793   -86.134943    252157.23   0.75135668    729.28212 
   63000       680000   -56040.184    280.94529    5023.8298   -61064.014    -56895.85    259.33079   -232.67892    252157.23   0.75135668    741.02577 
   64000       690000   -56162.121    281.11789    5026.9163   -61189.037    -55803.88    259.49011    97.415401    252157.23   0.75135668    753.16196 
   65000       700000   -56274.742    283.67831    5072.7013   -61347.443   -56021.825    261.85354    68.774863    252157.23   0.75135668    764.88024 
   66000       710000   -56068.316    283.88325     5076.366   -61144.682   -55386.266    262.04271    185.46804    252157.23   0.75135668    776.47129 
   67000       720000   -55894.641    287.80002    5146.4053   -61041.046   -55867.357    265.65815    7.4193403    252157.23   0.75135668    788.08692 
   68000       730000   -56138.829    282.67412    5054.7446   -61193.574   -56308.874    260.92661   -46.239713    252157.23   0.75135668    799.62176 
   69000       740000   -56075.455    283.29683    5065.8798   -61141.335   -56064.822    261.50142    2.8915123    252157.23   0.75135668    811.17303 
   70000       750000   -56277.357    280.19984    5010.4998   -61287.857   -56221.227    258.64269    15.263292    252157.23   0.75135668    822.75037 
   71000       760000   -56216.515    279.74657    5002.3945    -61218.91   -56236.971    258.22429   -5.5624169    252157.23   0.75135668    834.37739 
   72000       770000   -56220.106    282.30034    5048.0607   -61268.167   -56347.696    260.58159   -34.694985    252157.23   0.75135668     845.9997 
   73000       780000   -56375.485    279.68367    5001.2696   -61376.755   -55457.496    258.16623     249.6262    252157.23   0.75135668    857.60427 
   74000       790000   -56185.927    281.42095    5032.3355   -61218.263   -57211.211    259.76985   -278.80261    252157.23   0.75135668     869.4348 
   75000       800000   -56265.724    276.85324    4950.6562    -61216.38   -56509.341    255.55356   -66.246139    252157.23   0.75135668    881.42094 
   76000       810000   -56469.587    276.30123    4940.7852   -61410.372   -56573.922    255.04401   -28.371636    252157.23   0.75135668    892.87105 
   77000       820000   -56306.007    279.99131    5006.7709   -61312.778   -55564.657     258.4502    201.59319    252157.23   0.75135668    904.62395 
   78000       830000   -56344.613    284.07314    5079.7617   -61424.375    -57295.54      262.218   -258.58297    252157.23   0.75135668      916.252 
   79000       840000   -56192.032    282.78225    5056.6781    -61248.71   -56119.951    261.02642    19.600785    252157.23   0.75135668     927.6932 
   80000       850000    -56435.83     276.2033    4939.0341   -61374.864   -56714.356    254.95362   -75.738841    252157.23   0.75135668    939.45482 
   81000       860000   -56424.123    277.08332    4954.7706   -61378.894   -56516.524    255.76594   -25.126188    252157.23   0.75135668     951.1359 
   82000       870000   -56479.291    275.37922    4924.2979   -61403.589   -56705.418    254.19294   -61.490104    252157.23   0.75135668    962.69554 
   83000       880000   -56276.075    279.44584    4997.0168   -61273.092    -56308.14     257.9467   -8.7193942    252157.23   0.75135668     974.3608 
   84000       890000   -56529.359    275.48684    4926.2224   -61455.582   -57411.253    254.29228   -239.81077    252157.23   0.75135668    985.86588 
   85000       900000   -56399.482    278.91356    4987.4986    -61386.98    -56865.57    257.45536   -126.74226    252157.23   0.75135668    997.41368 
   86000       910000   -56394.035    275.32363     4923.304   -61317.339   -56372.695    254.14163    5.8031537    252157.23   0.75135668    1009.0327 
   87000       920000   -56385.293    277.02799    4953.7811   -61339.074   -56742.789    255.71487   -97.212826    252157.23   0.75135668    1020.6544 
   88000       930000   -56401.722    279.95081    5006.0466   -61407.768   -56387.195    258.41282    3.9502131    252157.23   0.75135668    1031.9865 
   89000       940000   -56451.413    278.09861    4972.9258   -61424.339   -57500.975    256.70312   -285.40443    252157.23   0.75135668    1043.8646 
   90000       950000   -56409.205    277.33243     4959.225    -61368.43   -57261.279    255.99588   -231.70213    252157.23   0.75135668    1055.4525 
   91000       960000   -56398.893    277.59093    4963.8476   -61362.741   -56527.068     256.2345   -34.854413    252157.23   0.75135668    1067.0327 
   92000       970000   -56444.206    273.12219    4883.9381   -61328.144   -56374.376    252.10956    18.988607    252157.23   0.75135668    1078.6337 
   93000       980000   -56377.055    278.33054    4977.0732   -61354.128   -57048.941    256.91721   -182.70407    252157.23   0.75135668    1090.3995 
   94000       990000    -56592.13    275.56724    4927.6601    -61519.79   -55896.733    254.36649    189.09732    252157.23   0.75135668    1101.8949 
   95000      1000000    -56566.64    276.29922    4940.7494   -61507.389   -57766.571    255.04217   -326.29392    252157.23   0.75135668    1113.3029 
   96000      1010000   -56869.564    269.59269    4820.8241   -61690.388   -57000.109     248.8516   -35.498912    252157.23   0.75135668    1124.8006 
   97000      1020000   -56839.329    267.81919    4789.1105    -61628.44   -56720.608    247.21454    32.283586    252157.23   0.75135668    1136.1599 
   98000      1030000    -56598.18    275.43611    4925.3153   -61523.495    -56949.91    254.24546   -95.644922    252157.23   0.75135668     1147.746 
   99000      1040000   -56716.444    270.07459    4829.4412   -61545.885   -57200.413    249.29642   -131.60423    252157.23   0.75135668    1159.2199 
  100000      1050000   -56693.437    267.26582    4779.2151   -61472.652   -56990.937    246.70374   -80.898277    252157.23   0.75135668    1171.1131 
Loop time of 1171.11 on 2 procs for 100000 steps with 6500 atoms

Performance: 73.776 ns/day, 0.325 hours/ns, 85.389 timesteps/s
99.3% CPU use with 2 MPI tasks x no OpenMP threads

MPI task timing breakdown:
Section |  min time  |  avg time  |  max time  |%varavg| %total
---------------------------------------------------------------
Pair    | 1063.3     | 1065.6     | 1067.8     |   6.9 | 90.99
Neigh   | 70.342     | 71.236     | 72.13      |  10.6 |  6.08
Comm    | 21.409     | 22.87      | 24.331     |  30.6 |  1.95
Output  | 0.092967   | 0.094544   | 0.096122   |   0.5 |  0.01
Modify  | 9.3601     | 9.4908     | 9.6216     |   4.2 |  0.81
Other   |            | 1.86       |            |       |  0.16

Nlocal:    3250 ave 3254 max 3246 min
Histogram: 1 0 0 0 0 0 0 0 0 1
Nghost:    3816 ave 3826 max 3806 min
Histogram: 1 0 0 0 0 0 0 0 0 1
Neighs:    0 ave 0 max 0 min
Histogram: 2 0 0 0 0 0 0 0 0 0
FullNghs:  95510 ave 95840 max 95180 min
Histogram: 1 0 0 0 0 0 0 0 0 1

Total # of neighbors = 191020
Ave neighs/atom = 29.3877
Neighbor list builds = 10000
Dangerous builds = 10000



Total wall time: 0:22:28
