LAMMPS Description

     3375  atoms
     0  bonds
     0  angles
     0  dihedrals
     0  impropers

     2  atom types

  0.000000 48.000 xlo xhi
  0.000000 48.000 ylo yhi
  0.000000 48.000 zlo zhi

Masses

2 15.999400  # OH
1 15.999400  # mW

Atoms  # atomic

1 1 0.0 0.0 0.0
2 1 4.0 0.0 0.0
3 1 8.0 0.0 0.0
4 1 12.0 0.0 0.0
5 1 16.0 0.0 0.0
6 1 20.0 0.0 0.0
7 1 24.0 0.0 0.0
8 1 28.0 0.0 0.0
9 1 32.0 0.0 0.0
10 1 36.0 0.0 0.0
11 1 40.0 0.0 0.0
12 1 44.0 0.0 0.0
13 1 48.0 0.0 0.0
14 1 0.0 4.0 0.0
15 1 4.0 4.0 0.0
16 1 8.0 4.0 0.0
17 1 12.0 4.0 0.0
18 1 16.0 4.0 0.0
19 1 20.0 4.0 0.0
20 1 24.0 4.0 0.0
21 1 28.0 4.0 0.0
22 1 32.0 4.0 0.0
23 1 36.0 4.0 0.0
24 1 40.0 4.0 0.0
25 1 44.0 4.0 0.0
26 1 48.0 4.0 0.0
27 1 0.0 8.0 0.0
28 1 4.0 8.0 0.0
29 1 8.0 8.0 0.0
30 1 12.0 8.0 0.0
31 1 16.0 8.0 0.0
32 1 20.0 8.0 0.0
33 1 24.0 8.0 0.0
34 1 28.0 8.0 0.0
35 1 32.0 8.0 0.0
36 1 36.0 8.0 0.0
37 1 40.0 8.0 0.0
38 1 44.0 8.0 0.0
39 1 48.0 8.0 0.0
40 1 0.0 12.0 0.0
41 1 4.0 12.0 0.0
42 1 8.0 12.0 0.0
43 1 12.0 12.0 0.0
44 1 16.0 12.0 0.0
45 1 20.0 12.0 0.0
46 1 24.0 12.0 0.0
47 1 28.0 12.0 0.0
48 1 32.0 12.0 0.0
49 1 36.0 12.0 0.0
50 1 40.0 12.0 0.0
51 1 44.0 12.0 0.0
52 1 48.0 12.0 0.0
53 1 0.0 16.0 0.0
54 1 4.0 16.0 0.0
55 1 8.0 16.0 0.0
56 1 12.0 16.0 0.0
57 1 16.0 16.0 0.0
58 1 20.0 16.0 0.0
59 1 24.0 16.0 0.0
60 1 28.0 16.0 0.0
61 1 32.0 16.0 0.0
62 1 36.0 16.0 0.0
63 1 40.0 16.0 0.0
64 1 44.0 16.0 0.0
65 1 48.0 16.0 0.0
66 1 0.0 20.0 0.0
67 1 4.0 20.0 0.0
68 1 8.0 20.0 0.0
69 1 12.0 20.0 0.0
70 1 16.0 20.0 0.0
71 1 20.0 20.0 0.0
72 1 24.0 20.0 0.0
73 1 28.0 20.0 0.0
74 1 32.0 20.0 0.0
75 1 36.0 20.0 0.0
76 1 40.0 20.0 0.0
77 1 44.0 20.0 0.0
78 1 48.0 20.0 0.0
79 1 0.0 24.0 0.0
80 1 4.0 24.0 0.0
81 1 8.0 24.0 0.0
82 1 12.0 24.0 0.0
83 1 16.0 24.0 0.0
84 1 20.0 24.0 0.0
85 1 24.0 24.0 0.0
86 1 28.0 24.0 0.0
87 1 32.0 24.0 0.0
88 1 36.0 24.0 0.0
89 1 40.0 24.0 0.0
90 1 44.0 24.0 0.0
91 1 48.0 24.0 0.0
92 1 0.0 28.0 0.0
93 1 4.0 28.0 0.0
94 1 8.0 28.0 0.0
95 1 12.0 28.0 0.0
96 1 16.0 28.0 0.0
97 1 20.0 28.0 0.0
98 1 24.0 28.0 0.0
99 1 28.0 28.0 0.0
100 1 32.0 28.0 0.0
101 1 36.0 28.0 0.0
102 1 40.0 28.0 0.0
103 1 44.0 28.0 0.0
104 1 48.0 28.0 0.0
105 1 0.0 32.0 0.0
106 1 4.0 32.0 0.0
107 1 8.0 32.0 0.0
108 1 12.0 32.0 0.0
109 1 16.0 32.0 0.0
110 1 20.0 32.0 0.0
111 1 24.0 32.0 0.0
112 1 28.0 32.0 0.0
113 1 32.0 32.0 0.0
114 1 36.0 32.0 0.0
115 1 40.0 32.0 0.0
116 1 44.0 32.0 0.0
117 1 48.0 32.0 0.0
118 1 0.0 36.0 0.0
119 1 4.0 36.0 0.0
120 1 8.0 36.0 0.0
121 1 12.0 36.0 0.0
122 1 16.0 36.0 0.0
123 1 20.0 36.0 0.0
124 1 24.0 36.0 0.0
125 1 28.0 36.0 0.0
126 1 32.0 36.0 0.0
127 1 36.0 36.0 0.0
128 1 40.0 36.0 0.0
129 1 44.0 36.0 0.0
130 1 48.0 36.0 0.0
131 1 0.0 40.0 0.0
132 1 4.0 40.0 0.0
133 1 8.0 40.0 0.0
134 1 12.0 40.0 0.0
135 1 16.0 40.0 0.0
136 1 20.0 40.0 0.0
137 1 24.0 40.0 0.0
138 1 28.0 40.0 0.0
139 1 32.0 40.0 0.0
140 1 36.0 40.0 0.0
141 1 40.0 40.0 0.0
142 1 44.0 40.0 0.0
143 1 48.0 40.0 0.0
144 1 0.0 44.0 0.0
145 1 4.0 44.0 0.0
146 1 8.0 44.0 0.0
147 1 12.0 44.0 0.0
148 1 16.0 44.0 0.0
149 1 20.0 44.0 0.0
150 1 24.0 44.0 0.0
151 1 28.0 44.0 0.0
152 1 32.0 44.0 0.0
153 1 36.0 44.0 0.0
154 1 40.0 44.0 0.0
155 1 44.0 44.0 0.0
156 1 48.0 44.0 0.0
157 1 0.0 48.0 0.0
158 1 4.0 48.0 0.0
159 1 8.0 48.0 0.0
160 1 12.0 48.0 0.0
161 1 16.0 48.0 0.0
162 1 20.0 48.0 0.0
163 1 24.0 48.0 0.0
164 1 28.0 48.0 0.0
165 1 32.0 48.0 0.0
166 1 36.0 48.0 0.0
167 1 40.0 48.0 0.0
168 1 44.0 48.0 0.0
169 1 48.0 48.0 0.0
170 1 0.0 0.0 4.0
171 1 4.0 0.0 4.0
172 1 8.0 0.0 4.0
173 1 12.0 0.0 4.0
174 1 16.0 0.0 4.0
175 1 20.0 0.0 4.0
176 1 24.0 0.0 4.0
177 1 28.0 0.0 4.0
178 1 32.0 0.0 4.0
179 1 36.0 0.0 4.0
180 1 40.0 0.0 4.0
181 1 44.0 0.0 4.0
182 1 48.0 0.0 4.0
183 1 0.0 4.0 4.0
184 1 4.0 4.0 4.0
185 1 8.0 4.0 4.0
186 1 12.0 4.0 4.0
187 1 16.0 4.0 4.0
188 1 20.0 4.0 4.0
189 1 24.0 4.0 4.0
190 1 28.0 4.0 4.0
191 1 32.0 4.0 4.0
192 1 36.0 4.0 4.0
193 1 40.0 4.0 4.0
194 1 44.0 4.0 4.0
195 1 48.0 4.0 4.0
196 1 0.0 8.0 4.0
197 1 4.0 8.0 4.0
198 1 8.0 8.0 4.0
199 1 12.0 8.0 4.0
200 1 16.0 8.0 4.0
201 1 20.0 8.0 4.0
202 1 24.0 8.0 4.0
203 1 28.0 8.0 4.0
204 1 32.0 8.0 4.0
205 1 36.0 8.0 4.0
206 1 40.0 8.0 4.0
207 1 44.0 8.0 4.0
208 1 48.0 8.0 4.0
209 1 0.0 12.0 4.0
210 1 4.0 12.0 4.0
211 1 8.0 12.0 4.0
212 1 12.0 12.0 4.0
213 1 16.0 12.0 4.0
214 1 20.0 12.0 4.0
215 1 24.0 12.0 4.0
216 1 28.0 12.0 4.0
217 1 32.0 12.0 4.0
218 1 36.0 12.0 4.0
219 1 40.0 12.0 4.0
220 1 44.0 12.0 4.0
221 1 48.0 12.0 4.0
222 1 0.0 16.0 4.0
223 1 4.0 16.0 4.0
224 1 8.0 16.0 4.0
225 1 12.0 16.0 4.0
226 1 16.0 16.0 4.0
227 1 20.0 16.0 4.0
228 1 24.0 16.0 4.0
229 1 28.0 16.0 4.0
230 1 32.0 16.0 4.0
231 1 36.0 16.0 4.0
232 1 40.0 16.0 4.0
233 1 44.0 16.0 4.0
234 1 48.0 16.0 4.0
235 1 0.0 20.0 4.0
236 1 4.0 20.0 4.0
237 1 8.0 20.0 4.0
238 1 12.0 20.0 4.0
239 1 16.0 20.0 4.0
240 1 20.0 20.0 4.0
241 1 24.0 20.0 4.0
242 1 28.0 20.0 4.0
243 1 32.0 20.0 4.0
244 1 36.0 20.0 4.0
245 1 40.0 20.0 4.0
246 1 44.0 20.0 4.0
247 1 48.0 20.0 4.0
248 1 0.0 24.0 4.0
249 1 4.0 24.0 4.0
250 1 8.0 24.0 4.0
251 1 12.0 24.0 4.0
252 1 16.0 24.0 4.0
253 1 20.0 24.0 4.0
254 1 24.0 24.0 4.0
255 1 28.0 24.0 4.0
256 1 32.0 24.0 4.0
257 1 36.0 24.0 4.0
258 1 40.0 24.0 4.0
259 1 44.0 24.0 4.0
260 1 48.0 24.0 4.0
261 1 0.0 28.0 4.0
262 1 4.0 28.0 4.0
263 1 8.0 28.0 4.0
264 1 12.0 28.0 4.0
265 1 16.0 28.0 4.0
266 1 20.0 28.0 4.0
267 1 24.0 28.0 4.0
268 1 28.0 28.0 4.0
269 1 32.0 28.0 4.0
270 1 36.0 28.0 4.0
271 1 40.0 28.0 4.0
272 1 44.0 28.0 4.0
273 1 48.0 28.0 4.0
274 1 0.0 32.0 4.0
275 1 4.0 32.0 4.0
276 1 8.0 32.0 4.0
277 1 12.0 32.0 4.0
278 1 16.0 32.0 4.0
279 1 20.0 32.0 4.0
280 1 24.0 32.0 4.0
281 1 28.0 32.0 4.0
282 1 32.0 32.0 4.0
283 1 36.0 32.0 4.0
284 1 40.0 32.0 4.0
285 1 44.0 32.0 4.0
286 1 48.0 32.0 4.0
287 1 0.0 36.0 4.0
288 1 4.0 36.0 4.0
289 1 8.0 36.0 4.0
290 1 12.0 36.0 4.0
291 1 16.0 36.0 4.0
292 1 20.0 36.0 4.0
293 1 24.0 36.0 4.0
294 1 28.0 36.0 4.0
295 1 32.0 36.0 4.0
296 1 36.0 36.0 4.0
297 1 40.0 36.0 4.0
298 1 44.0 36.0 4.0
299 1 48.0 36.0 4.0
300 1 0.0 40.0 4.0
301 1 4.0 40.0 4.0
302 1 8.0 40.0 4.0
303 1 12.0 40.0 4.0
304 1 16.0 40.0 4.0
305 1 20.0 40.0 4.0
306 1 24.0 40.0 4.0
307 1 28.0 40.0 4.0
308 1 32.0 40.0 4.0
309 1 36.0 40.0 4.0
310 1 40.0 40.0 4.0
311 1 44.0 40.0 4.0
312 1 48.0 40.0 4.0
313 1 0.0 44.0 4.0
314 1 4.0 44.0 4.0
315 1 8.0 44.0 4.0
316 1 12.0 44.0 4.0
317 1 16.0 44.0 4.0
318 1 20.0 44.0 4.0
319 1 24.0 44.0 4.0
320 1 28.0 44.0 4.0
321 1 32.0 44.0 4.0
322 1 36.0 44.0 4.0
323 1 40.0 44.0 4.0
324 1 44.0 44.0 4.0
325 1 48.0 44.0 4.0
326 1 0.0 48.0 4.0
327 1 4.0 48.0 4.0
328 1 8.0 48.0 4.0
329 1 12.0 48.0 4.0
330 1 16.0 48.0 4.0
331 1 20.0 48.0 4.0
332 1 24.0 48.0 4.0
333 1 28.0 48.0 4.0
334 1 32.0 48.0 4.0
335 1 36.0 48.0 4.0
336 1 40.0 48.0 4.0
337 1 44.0 48.0 4.0
338 1 48.0 48.0 4.0
339 1 0.0 0.0 8.0
340 1 4.0 0.0 8.0
341 1 8.0 0.0 8.0
342 1 12.0 0.0 8.0
343 1 16.0 0.0 8.0
344 1 20.0 0.0 8.0
345 1 24.0 0.0 8.0
346 1 28.0 0.0 8.0
347 1 32.0 0.0 8.0
348 1 36.0 0.0 8.0
349 1 40.0 0.0 8.0
350 1 44.0 0.0 8.0
351 1 48.0 0.0 8.0
352 1 0.0 4.0 8.0
353 1 4.0 4.0 8.0
354 1 8.0 4.0 8.0
355 1 12.0 4.0 8.0
356 1 16.0 4.0 8.0
357 1 20.0 4.0 8.0
358 1 24.0 4.0 8.0
359 1 28.0 4.0 8.0
360 1 32.0 4.0 8.0
361 1 36.0 4.0 8.0
362 1 40.0 4.0 8.0
363 1 44.0 4.0 8.0
364 1 48.0 4.0 8.0
365 1 0.0 8.0 8.0
366 1 4.0 8.0 8.0
367 1 8.0 8.0 8.0
368 1 12.0 8.0 8.0
369 1 16.0 8.0 8.0
370 1 20.0 8.0 8.0
371 1 24.0 8.0 8.0
372 1 28.0 8.0 8.0
373 1 32.0 8.0 8.0
374 1 36.0 8.0 8.0
375 1 40.0 8.0 8.0
376 1 44.0 8.0 8.0
377 1 48.0 8.0 8.0
378 1 0.0 12.0 8.0
379 1 4.0 12.0 8.0
380 1 8.0 12.0 8.0
381 1 12.0 12.0 8.0
382 1 16.0 12.0 8.0
383 1 20.0 12.0 8.0
384 1 24.0 12.0 8.0
385 1 28.0 12.0 8.0
386 1 32.0 12.0 8.0
387 1 36.0 12.0 8.0
388 1 40.0 12.0 8.0
389 1 44.0 12.0 8.0
390 1 48.0 12.0 8.0
391 1 0.0 16.0 8.0
392 1 4.0 16.0 8.0
393 1 8.0 16.0 8.0
394 1 12.0 16.0 8.0
395 1 16.0 16.0 8.0
396 1 20.0 16.0 8.0
397 1 24.0 16.0 8.0
398 1 28.0 16.0 8.0
399 1 32.0 16.0 8.0
400 1 36.0 16.0 8.0
401 1 40.0 16.0 8.0
402 1 44.0 16.0 8.0
403 1 48.0 16.0 8.0
404 1 0.0 20.0 8.0
405 1 4.0 20.0 8.0
406 1 8.0 20.0 8.0
407 1 12.0 20.0 8.0
408 1 16.0 20.0 8.0
409 1 20.0 20.0 8.0
410 1 24.0 20.0 8.0
411 1 28.0 20.0 8.0
412 1 32.0 20.0 8.0
413 1 36.0 20.0 8.0
414 1 40.0 20.0 8.0
415 1 44.0 20.0 8.0
416 1 48.0 20.0 8.0
417 1 0.0 24.0 8.0
418 1 4.0 24.0 8.0
419 1 8.0 24.0 8.0
420 1 12.0 24.0 8.0
421 1 16.0 24.0 8.0
422 1 20.0 24.0 8.0
423 1 24.0 24.0 8.0
424 1 28.0 24.0 8.0
425 1 32.0 24.0 8.0
426 1 36.0 24.0 8.0
427 1 40.0 24.0 8.0
428 1 44.0 24.0 8.0
429 1 48.0 24.0 8.0
430 1 0.0 28.0 8.0
431 1 4.0 28.0 8.0
432 1 8.0 28.0 8.0
433 1 12.0 28.0 8.0
434 1 16.0 28.0 8.0
435 1 20.0 28.0 8.0
436 1 24.0 28.0 8.0
437 1 28.0 28.0 8.0
438 1 32.0 28.0 8.0
439 1 36.0 28.0 8.0
440 1 40.0 28.0 8.0
441 1 44.0 28.0 8.0
442 1 48.0 28.0 8.0
443 1 0.0 32.0 8.0
444 1 4.0 32.0 8.0
445 1 8.0 32.0 8.0
446 1 12.0 32.0 8.0
447 1 16.0 32.0 8.0
448 1 20.0 32.0 8.0
449 1 24.0 32.0 8.0
450 1 28.0 32.0 8.0
451 1 32.0 32.0 8.0
452 1 36.0 32.0 8.0
453 1 40.0 32.0 8.0
454 1 44.0 32.0 8.0
455 1 48.0 32.0 8.0
456 1 0.0 36.0 8.0
457 1 4.0 36.0 8.0
458 1 8.0 36.0 8.0
459 1 12.0 36.0 8.0
460 1 16.0 36.0 8.0
461 1 20.0 36.0 8.0
462 1 24.0 36.0 8.0
463 1 28.0 36.0 8.0
464 1 32.0 36.0 8.0
465 1 36.0 36.0 8.0
466 1 40.0 36.0 8.0
467 1 44.0 36.0 8.0
468 1 48.0 36.0 8.0
469 1 0.0 40.0 8.0
470 1 4.0 40.0 8.0
471 1 8.0 40.0 8.0
472 1 12.0 40.0 8.0
473 1 16.0 40.0 8.0
474 1 20.0 40.0 8.0
475 1 24.0 40.0 8.0
476 1 28.0 40.0 8.0
477 1 32.0 40.0 8.0
478 1 36.0 40.0 8.0
479 1 40.0 40.0 8.0
480 1 44.0 40.0 8.0
481 1 48.0 40.0 8.0
482 1 0.0 44.0 8.0
483 1 4.0 44.0 8.0
484 1 8.0 44.0 8.0
485 1 12.0 44.0 8.0
486 1 16.0 44.0 8.0
487 1 20.0 44.0 8.0
488 1 24.0 44.0 8.0
489 1 28.0 44.0 8.0
490 1 32.0 44.0 8.0
491 1 36.0 44.0 8.0
492 1 40.0 44.0 8.0
493 1 44.0 44.0 8.0
494 1 48.0 44.0 8.0
495 1 0.0 48.0 8.0
496 1 4.0 48.0 8.0
497 1 8.0 48.0 8.0
498 1 12.0 48.0 8.0
499 1 16.0 48.0 8.0
500 1 20.0 48.0 8.0
501 1 24.0 48.0 8.0
502 1 28.0 48.0 8.0
503 1 32.0 48.0 8.0
504 1 36.0 48.0 8.0
505 1 40.0 48.0 8.0
506 1 44.0 48.0 8.0
507 1 48.0 48.0 8.0
508 1 0.0 0.0 12.0
509 1 4.0 0.0 12.0
510 1 8.0 0.0 12.0
511 1 12.0 0.0 12.0
512 1 16.0 0.0 12.0
513 1 20.0 0.0 12.0
514 1 24.0 0.0 12.0
515 1 28.0 0.0 12.0
516 1 32.0 0.0 12.0
517 1 36.0 0.0 12.0
518 1 40.0 0.0 12.0
519 1 44.0 0.0 12.0
520 1 48.0 0.0 12.0
521 1 0.0 4.0 12.0
522 1 4.0 4.0 12.0
523 1 8.0 4.0 12.0
524 1 12.0 4.0 12.0
525 1 16.0 4.0 12.0
526 1 20.0 4.0 12.0
527 1 24.0 4.0 12.0
528 1 28.0 4.0 12.0
529 1 32.0 4.0 12.0
530 1 36.0 4.0 12.0
531 1 40.0 4.0 12.0
532 1 44.0 4.0 12.0
533 1 48.0 4.0 12.0
534 1 0.0 8.0 12.0
535 1 4.0 8.0 12.0
536 1 8.0 8.0 12.0
537 1 12.0 8.0 12.0
538 1 16.0 8.0 12.0
539 1 20.0 8.0 12.0
540 1 24.0 8.0 12.0
541 1 28.0 8.0 12.0
542 1 32.0 8.0 12.0
543 1 36.0 8.0 12.0
544 1 40.0 8.0 12.0
545 1 44.0 8.0 12.0
546 1 48.0 8.0 12.0
547 1 0.0 12.0 12.0
548 1 4.0 12.0 12.0
549 1 8.0 12.0 12.0
550 1 12.0 12.0 12.0
551 1 16.0 12.0 12.0
552 1 20.0 12.0 12.0
553 1 24.0 12.0 12.0
554 1 28.0 12.0 12.0
555 1 32.0 12.0 12.0
556 1 36.0 12.0 12.0
557 1 40.0 12.0 12.0
558 1 44.0 12.0 12.0
559 1 48.0 12.0 12.0
560 1 0.0 16.0 12.0
561 1 4.0 16.0 12.0
562 1 8.0 16.0 12.0
563 1 12.0 16.0 12.0
564 1 16.0 16.0 12.0
565 1 20.0 16.0 12.0
566 1 24.0 16.0 12.0
567 1 28.0 16.0 12.0
568 1 32.0 16.0 12.0
569 1 36.0 16.0 12.0
570 1 40.0 16.0 12.0
571 1 44.0 16.0 12.0
572 1 48.0 16.0 12.0
573 1 0.0 20.0 12.0
574 1 4.0 20.0 12.0
575 1 8.0 20.0 12.0
576 1 12.0 20.0 12.0
577 1 16.0 20.0 12.0
578 1 20.0 20.0 12.0
579 1 24.0 20.0 12.0
580 1 28.0 20.0 12.0
581 1 32.0 20.0 12.0
582 1 36.0 20.0 12.0
583 1 40.0 20.0 12.0
584 1 44.0 20.0 12.0
585 1 48.0 20.0 12.0
586 1 0.0 24.0 12.0
587 1 4.0 24.0 12.0
588 1 8.0 24.0 12.0
589 1 12.0 24.0 12.0
590 1 16.0 24.0 12.0
591 1 20.0 24.0 12.0
592 1 24.0 24.0 12.0
593 1 28.0 24.0 12.0
594 1 32.0 24.0 12.0
595 1 36.0 24.0 12.0
596 1 40.0 24.0 12.0
597 1 44.0 24.0 12.0
598 1 48.0 24.0 12.0
599 1 0.0 28.0 12.0
600 1 4.0 28.0 12.0
601 1 8.0 28.0 12.0
602 1 12.0 28.0 12.0
603 1 16.0 28.0 12.0
604 1 20.0 28.0 12.0
605 1 24.0 28.0 12.0
606 1 28.0 28.0 12.0
607 1 32.0 28.0 12.0
608 1 36.0 28.0 12.0
609 1 40.0 28.0 12.0
610 1 44.0 28.0 12.0
611 1 48.0 28.0 12.0
612 1 0.0 32.0 12.0
613 1 4.0 32.0 12.0
614 1 8.0 32.0 12.0
615 1 12.0 32.0 12.0
616 1 16.0 32.0 12.0
617 1 20.0 32.0 12.0
618 1 24.0 32.0 12.0
619 1 28.0 32.0 12.0
620 1 32.0 32.0 12.0
621 1 36.0 32.0 12.0
622 1 40.0 32.0 12.0
623 1 44.0 32.0 12.0
624 1 48.0 32.0 12.0
625 1 0.0 36.0 12.0
626 1 4.0 36.0 12.0
627 1 8.0 36.0 12.0
628 1 12.0 36.0 12.0
629 1 16.0 36.0 12.0
630 1 20.0 36.0 12.0
631 1 24.0 36.0 12.0
632 1 28.0 36.0 12.0
633 1 32.0 36.0 12.0
634 1 36.0 36.0 12.0
635 1 40.0 36.0 12.0
636 1 44.0 36.0 12.0
637 1 48.0 36.0 12.0
638 1 0.0 40.0 12.0
639 1 4.0 40.0 12.0
640 1 8.0 40.0 12.0
641 1 12.0 40.0 12.0
642 1 16.0 40.0 12.0
643 1 20.0 40.0 12.0
644 1 24.0 40.0 12.0
645 1 28.0 40.0 12.0
646 1 32.0 40.0 12.0
647 1 36.0 40.0 12.0
648 1 40.0 40.0 12.0
649 1 44.0 40.0 12.0
650 1 48.0 40.0 12.0
651 1 0.0 44.0 12.0
652 1 4.0 44.0 12.0
653 1 8.0 44.0 12.0
654 1 12.0 44.0 12.0
655 1 16.0 44.0 12.0
656 1 20.0 44.0 12.0
657 1 24.0 44.0 12.0
658 1 28.0 44.0 12.0
659 1 32.0 44.0 12.0
660 1 36.0 44.0 12.0
661 1 40.0 44.0 12.0
662 1 44.0 44.0 12.0
663 1 48.0 44.0 12.0
664 1 0.0 48.0 12.0
665 1 4.0 48.0 12.0
666 1 8.0 48.0 12.0
667 1 12.0 48.0 12.0
668 1 16.0 48.0 12.0
669 1 20.0 48.0 12.0
670 1 24.0 48.0 12.0
671 1 28.0 48.0 12.0
672 1 32.0 48.0 12.0
673 1 36.0 48.0 12.0
674 1 40.0 48.0 12.0
675 1 44.0 48.0 12.0
676 1 48.0 48.0 12.0
677 1 0.0 0.0 16.0
678 1 4.0 0.0 16.0
679 1 8.0 0.0 16.0
680 1 12.0 0.0 16.0
681 1 16.0 0.0 16.0
682 1 20.0 0.0 16.0
683 1 24.0 0.0 16.0
684 1 28.0 0.0 16.0
685 1 32.0 0.0 16.0
686 1 36.0 0.0 16.0
687 1 40.0 0.0 16.0
688 1 44.0 0.0 16.0
689 1 48.0 0.0 16.0
690 1 0.0 4.0 16.0
691 1 4.0 4.0 16.0
692 1 8.0 4.0 16.0
693 1 12.0 4.0 16.0
694 1 16.0 4.0 16.0
695 1 20.0 4.0 16.0
696 1 24.0 4.0 16.0
697 1 28.0 4.0 16.0
698 1 32.0 4.0 16.0
699 1 36.0 4.0 16.0
700 1 40.0 4.0 16.0
701 1 44.0 4.0 16.0
702 1 48.0 4.0 16.0
703 1 0.0 8.0 16.0
704 1 4.0 8.0 16.0
705 1 8.0 8.0 16.0
706 1 12.0 8.0 16.0
707 1 16.0 8.0 16.0
708 1 20.0 8.0 16.0
709 1 24.0 8.0 16.0
710 1 28.0 8.0 16.0
711 1 32.0 8.0 16.0
712 1 36.0 8.0 16.0
713 1 40.0 8.0 16.0
714 1 44.0 8.0 16.0
715 1 48.0 8.0 16.0
716 1 0.0 12.0 16.0
717 1 4.0 12.0 16.0
718 1 8.0 12.0 16.0
719 1 12.0 12.0 16.0
720 1 16.0 12.0 16.0
721 1 20.0 12.0 16.0
722 1 24.0 12.0 16.0
723 1 28.0 12.0 16.0
724 1 32.0 12.0 16.0
725 1 36.0 12.0 16.0
726 1 40.0 12.0 16.0
727 1 44.0 12.0 16.0
728 1 48.0 12.0 16.0
729 1 0.0 16.0 16.0
730 1 4.0 16.0 16.0
731 1 8.0 16.0 16.0
732 1 12.0 16.0 16.0
733 1 16.0 16.0 16.0
734 1 20.0 16.0 16.0
735 1 24.0 16.0 16.0
736 1 28.0 16.0 16.0
737 1 32.0 16.0 16.0
738 1 36.0 16.0 16.0
739 1 40.0 16.0 16.0
740 1 44.0 16.0 16.0
741 1 48.0 16.0 16.0
742 1 0.0 20.0 16.0
743 1 4.0 20.0 16.0
744 1 8.0 20.0 16.0
745 1 12.0 20.0 16.0
746 1 16.0 20.0 16.0
747 1 20.0 20.0 16.0
748 1 24.0 20.0 16.0
749 1 28.0 20.0 16.0
750 1 32.0 20.0 16.0
751 1 36.0 20.0 16.0
752 1 40.0 20.0 16.0
753 1 44.0 20.0 16.0
754 1 48.0 20.0 16.0
755 1 0.0 24.0 16.0
756 1 4.0 24.0 16.0
757 1 8.0 24.0 16.0
758 1 12.0 24.0 16.0
759 1 16.0 24.0 16.0
760 1 20.0 24.0 16.0
761 1 24.0 24.0 16.0
762 1 28.0 24.0 16.0
763 1 32.0 24.0 16.0
764 1 36.0 24.0 16.0
765 1 40.0 24.0 16.0
766 1 44.0 24.0 16.0
767 1 48.0 24.0 16.0
768 1 0.0 28.0 16.0
769 1 4.0 28.0 16.0
770 1 8.0 28.0 16.0
771 1 12.0 28.0 16.0
772 1 16.0 28.0 16.0
773 1 20.0 28.0 16.0
774 1 24.0 28.0 16.0
775 1 28.0 28.0 16.0
776 1 32.0 28.0 16.0
777 1 36.0 28.0 16.0
778 1 40.0 28.0 16.0
779 1 44.0 28.0 16.0
780 1 48.0 28.0 16.0
781 1 0.0 32.0 16.0
782 1 4.0 32.0 16.0
783 1 8.0 32.0 16.0
784 1 12.0 32.0 16.0
785 1 16.0 32.0 16.0
786 1 20.0 32.0 16.0
787 1 24.0 32.0 16.0
788 1 28.0 32.0 16.0
789 1 32.0 32.0 16.0
790 1 36.0 32.0 16.0
791 1 40.0 32.0 16.0
792 1 44.0 32.0 16.0
793 1 48.0 32.0 16.0
794 1 0.0 36.0 16.0
795 1 4.0 36.0 16.0
796 1 8.0 36.0 16.0
797 1 12.0 36.0 16.0
798 1 16.0 36.0 16.0
799 1 20.0 36.0 16.0
800 1 24.0 36.0 16.0
801 1 28.0 36.0 16.0
802 1 32.0 36.0 16.0
803 1 36.0 36.0 16.0
804 1 40.0 36.0 16.0
805 1 44.0 36.0 16.0
806 1 48.0 36.0 16.0
807 1 0.0 40.0 16.0
808 1 4.0 40.0 16.0
809 1 8.0 40.0 16.0
810 1 12.0 40.0 16.0
811 1 16.0 40.0 16.0
812 1 20.0 40.0 16.0
813 1 24.0 40.0 16.0
814 1 28.0 40.0 16.0
815 1 32.0 40.0 16.0
816 1 36.0 40.0 16.0
817 1 40.0 40.0 16.0
818 1 44.0 40.0 16.0
819 1 48.0 40.0 16.0
820 1 0.0 44.0 16.0
821 1 4.0 44.0 16.0
822 1 8.0 44.0 16.0
823 1 12.0 44.0 16.0
824 1 16.0 44.0 16.0
825 1 20.0 44.0 16.0
826 1 24.0 44.0 16.0
827 1 28.0 44.0 16.0
828 1 32.0 44.0 16.0
829 1 36.0 44.0 16.0
830 1 40.0 44.0 16.0
831 1 44.0 44.0 16.0
832 1 48.0 44.0 16.0
833 1 0.0 48.0 16.0
834 1 4.0 48.0 16.0
835 1 8.0 48.0 16.0
836 1 12.0 48.0 16.0
837 1 16.0 48.0 16.0
838 1 20.0 48.0 16.0
839 1 24.0 48.0 16.0
840 1 28.0 48.0 16.0
841 1 32.0 48.0 16.0
842 1 36.0 48.0 16.0
843 1 40.0 48.0 16.0
844 1 44.0 48.0 16.0
845 1 48.0 48.0 16.0
846 1 0.0 0.0 20.0
847 1 4.0 0.0 20.0
848 1 8.0 0.0 20.0
849 1 12.0 0.0 20.0
850 1 16.0 0.0 20.0
851 1 20.0 0.0 20.0
852 1 24.0 0.0 20.0
853 1 28.0 0.0 20.0
854 1 32.0 0.0 20.0
855 1 36.0 0.0 20.0
856 1 40.0 0.0 20.0
857 1 44.0 0.0 20.0
858 1 48.0 0.0 20.0
859 1 0.0 4.0 20.0
860 1 4.0 4.0 20.0
861 1 8.0 4.0 20.0
862 1 12.0 4.0 20.0
863 1 16.0 4.0 20.0
864 1 20.0 4.0 20.0
865 1 24.0 4.0 20.0
866 1 28.0 4.0 20.0
867 1 32.0 4.0 20.0
868 1 36.0 4.0 20.0
869 1 40.0 4.0 20.0
870 1 44.0 4.0 20.0
871 1 48.0 4.0 20.0
872 1 0.0 8.0 20.0
873 1 4.0 8.0 20.0
874 1 8.0 8.0 20.0
875 1 12.0 8.0 20.0
876 1 16.0 8.0 20.0
877 1 20.0 8.0 20.0
878 1 24.0 8.0 20.0
879 1 28.0 8.0 20.0
880 1 32.0 8.0 20.0
881 1 36.0 8.0 20.0
882 1 40.0 8.0 20.0
883 1 44.0 8.0 20.0
884 1 48.0 8.0 20.0
885 1 0.0 12.0 20.0
886 1 4.0 12.0 20.0
887 1 8.0 12.0 20.0
888 1 12.0 12.0 20.0
889 1 16.0 12.0 20.0
890 1 20.0 12.0 20.0
891 1 24.0 12.0 20.0
892 1 28.0 12.0 20.0
893 1 32.0 12.0 20.0
894 1 36.0 12.0 20.0
895 1 40.0 12.0 20.0
896 1 44.0 12.0 20.0
897 1 48.0 12.0 20.0
898 1 0.0 16.0 20.0
899 1 4.0 16.0 20.0
900 1 8.0 16.0 20.0
901 1 12.0 16.0 20.0
902 1 16.0 16.0 20.0
903 1 20.0 16.0 20.0
904 1 24.0 16.0 20.0
905 1 28.0 16.0 20.0
906 1 32.0 16.0 20.0
907 1 36.0 16.0 20.0
908 1 40.0 16.0 20.0
909 1 44.0 16.0 20.0
910 1 48.0 16.0 20.0
911 1 0.0 20.0 20.0
912 1 4.0 20.0 20.0
913 1 8.0 20.0 20.0
914 1 12.0 20.0 20.0
915 1 16.0 20.0 20.0
916 1 20.0 20.0 20.0
917 1 24.0 20.0 20.0
918 1 28.0 20.0 20.0
919 1 32.0 20.0 20.0
920 1 36.0 20.0 20.0
921 1 40.0 20.0 20.0
922 1 44.0 20.0 20.0
923 1 48.0 20.0 20.0
924 1 0.0 24.0 20.0
925 1 4.0 24.0 20.0
926 1 8.0 24.0 20.0
927 1 12.0 24.0 20.0
928 1 16.0 24.0 20.0
929 1 20.0 24.0 20.0
930 1 24.0 24.0 20.0
931 1 28.0 24.0 20.0
932 1 32.0 24.0 20.0
933 1 36.0 24.0 20.0
934 1 40.0 24.0 20.0
935 1 44.0 24.0 20.0
936 1 48.0 24.0 20.0
937 1 0.0 28.0 20.0
938 1 4.0 28.0 20.0
939 1 8.0 28.0 20.0
940 1 12.0 28.0 20.0
941 1 16.0 28.0 20.0
942 1 20.0 28.0 20.0
943 1 24.0 28.0 20.0
944 1 28.0 28.0 20.0
945 1 32.0 28.0 20.0
946 1 36.0 28.0 20.0
947 1 40.0 28.0 20.0
948 1 44.0 28.0 20.0
949 1 48.0 28.0 20.0
950 1 0.0 32.0 20.0
951 1 4.0 32.0 20.0
952 1 8.0 32.0 20.0
953 1 12.0 32.0 20.0
954 1 16.0 32.0 20.0
955 1 20.0 32.0 20.0
956 1 24.0 32.0 20.0
957 1 28.0 32.0 20.0
958 1 32.0 32.0 20.0
959 1 36.0 32.0 20.0
960 1 40.0 32.0 20.0
961 1 44.0 32.0 20.0
962 1 48.0 32.0 20.0
963 1 0.0 36.0 20.0
964 1 4.0 36.0 20.0
965 1 8.0 36.0 20.0
966 1 12.0 36.0 20.0
967 1 16.0 36.0 20.0
968 1 20.0 36.0 20.0
969 1 24.0 36.0 20.0
970 1 28.0 36.0 20.0
971 1 32.0 36.0 20.0
972 1 36.0 36.0 20.0
973 1 40.0 36.0 20.0
974 1 44.0 36.0 20.0
975 1 48.0 36.0 20.0
976 1 0.0 40.0 20.0
977 1 4.0 40.0 20.0
978 1 8.0 40.0 20.0
979 1 12.0 40.0 20.0
980 1 16.0 40.0 20.0
981 1 20.0 40.0 20.0
982 1 24.0 40.0 20.0
983 1 28.0 40.0 20.0
984 1 32.0 40.0 20.0
985 1 36.0 40.0 20.0
986 1 40.0 40.0 20.0
987 1 44.0 40.0 20.0
988 1 48.0 40.0 20.0
989 1 0.0 44.0 20.0
990 1 4.0 44.0 20.0
991 1 8.0 44.0 20.0
992 1 12.0 44.0 20.0
993 1 16.0 44.0 20.0
994 1 20.0 44.0 20.0
995 1 24.0 44.0 20.0
996 1 28.0 44.0 20.0
997 1 32.0 44.0 20.0
998 1 36.0 44.0 20.0
999 1 40.0 44.0 20.0
1000 1 44.0 44.0 20.0
1001 1 48.0 44.0 20.0
1002 1 0.0 48.0 20.0
1003 1 4.0 48.0 20.0
1004 1 8.0 48.0 20.0
1005 1 12.0 48.0 20.0
1006 1 16.0 48.0 20.0
1007 1 20.0 48.0 20.0
1008 1 24.0 48.0 20.0
1009 1 28.0 48.0 20.0
1010 1 32.0 48.0 20.0
1011 1 36.0 48.0 20.0
1012 1 40.0 48.0 20.0
1013 1 44.0 48.0 20.0
1014 1 48.0 48.0 20.0
1015 1 0.0 0.0 24.0
1016 1 4.0 0.0 24.0
1017 1 8.0 0.0 24.0
1018 1 12.0 0.0 24.0
1019 1 16.0 0.0 24.0
1020 1 20.0 0.0 24.0
1021 1 24.0 0.0 24.0
1022 1 28.0 0.0 24.0
1023 1 32.0 0.0 24.0
1024 1 36.0 0.0 24.0
1025 1 40.0 0.0 24.0
1026 1 44.0 0.0 24.0
1027 1 48.0 0.0 24.0
1028 1 0.0 4.0 24.0
1029 1 4.0 4.0 24.0
1030 1 8.0 4.0 24.0
1031 1 12.0 4.0 24.0
1032 1 16.0 4.0 24.0
1033 1 20.0 4.0 24.0
1034 1 24.0 4.0 24.0
1035 1 28.0 4.0 24.0
1036 1 32.0 4.0 24.0
1037 1 36.0 4.0 24.0
1038 1 40.0 4.0 24.0
1039 1 44.0 4.0 24.0
1040 1 48.0 4.0 24.0
1041 1 0.0 8.0 24.0
1042 1 4.0 8.0 24.0
1043 1 8.0 8.0 24.0
1044 1 12.0 8.0 24.0
1045 1 16.0 8.0 24.0
1046 1 20.0 8.0 24.0
1047 1 24.0 8.0 24.0
1048 1 28.0 8.0 24.0
1049 1 32.0 8.0 24.0
1050 1 36.0 8.0 24.0
1051 1 40.0 8.0 24.0
1052 1 44.0 8.0 24.0
1053 1 48.0 8.0 24.0
1054 1 0.0 12.0 24.0
1055 1 4.0 12.0 24.0
1056 1 8.0 12.0 24.0
1057 1 12.0 12.0 24.0
1058 1 16.0 12.0 24.0
1059 1 20.0 12.0 24.0
1060 1 24.0 12.0 24.0
1061 1 28.0 12.0 24.0
1062 1 32.0 12.0 24.0
1063 1 36.0 12.0 24.0
1064 1 40.0 12.0 24.0
1065 1 44.0 12.0 24.0
1066 1 48.0 12.0 24.0
1067 1 0.0 16.0 24.0
1068 1 4.0 16.0 24.0
1069 1 8.0 16.0 24.0
1070 1 12.0 16.0 24.0
1071 1 16.0 16.0 24.0
1072 1 20.0 16.0 24.0
1073 1 24.0 16.0 24.0
1074 1 28.0 16.0 24.0
1075 1 32.0 16.0 24.0
1076 1 36.0 16.0 24.0
1077 1 40.0 16.0 24.0
1078 1 44.0 16.0 24.0
1079 1 48.0 16.0 24.0
1080 1 0.0 20.0 24.0
1081 1 4.0 20.0 24.0
1082 1 8.0 20.0 24.0
1083 1 12.0 20.0 24.0
1084 1 16.0 20.0 24.0
1085 1 20.0 20.0 24.0
1086 1 24.0 20.0 24.0
1087 1 28.0 20.0 24.0
1088 1 32.0 20.0 24.0
1089 1 36.0 20.0 24.0
1090 1 40.0 20.0 24.0
1091 1 44.0 20.0 24.0
1092 1 48.0 20.0 24.0
1093 1 0.0 24.0 24.0
1094 1 4.0 24.0 24.0
1095 1 8.0 24.0 24.0
1096 1 12.0 24.0 24.0
1097 1 16.0 24.0 24.0
1098 1 20.0 24.0 24.0
1099 1 24.0 24.0 24.0
1100 1 28.0 24.0 24.0
1101 1 32.0 24.0 24.0
1102 1 36.0 24.0 24.0
1103 1 40.0 24.0 24.0
1104 1 44.0 24.0 24.0
1105 1 48.0 24.0 24.0
1106 1 0.0 28.0 24.0
1107 1 4.0 28.0 24.0
1108 1 8.0 28.0 24.0
1109 1 12.0 28.0 24.0
1110 1 16.0 28.0 24.0
1111 1 20.0 28.0 24.0
1112 1 24.0 28.0 24.0
1113 1 28.0 28.0 24.0
1114 1 32.0 28.0 24.0
1115 1 36.0 28.0 24.0
1116 1 40.0 28.0 24.0
1117 1 44.0 28.0 24.0
1118 1 48.0 28.0 24.0
1119 1 0.0 32.0 24.0
1120 1 4.0 32.0 24.0
1121 1 8.0 32.0 24.0
1122 1 12.0 32.0 24.0
1123 1 16.0 32.0 24.0
1124 1 20.0 32.0 24.0
1125 1 24.0 32.0 24.0
1126 1 28.0 32.0 24.0
1127 1 32.0 32.0 24.0
1128 1 36.0 32.0 24.0
1129 1 40.0 32.0 24.0
1130 1 44.0 32.0 24.0
1131 1 48.0 32.0 24.0
1132 1 0.0 36.0 24.0
1133 1 4.0 36.0 24.0
1134 1 8.0 36.0 24.0
1135 1 12.0 36.0 24.0
1136 1 16.0 36.0 24.0
1137 1 20.0 36.0 24.0
1138 1 24.0 36.0 24.0
1139 1 28.0 36.0 24.0
1140 1 32.0 36.0 24.0
1141 1 36.0 36.0 24.0
1142 1 40.0 36.0 24.0
1143 1 44.0 36.0 24.0
1144 1 48.0 36.0 24.0
1145 1 0.0 40.0 24.0
1146 1 4.0 40.0 24.0
1147 1 8.0 40.0 24.0
1148 1 12.0 40.0 24.0
1149 1 16.0 40.0 24.0
1150 1 20.0 40.0 24.0
1151 1 24.0 40.0 24.0
1152 1 28.0 40.0 24.0
1153 1 32.0 40.0 24.0
1154 1 36.0 40.0 24.0
1155 1 40.0 40.0 24.0
1156 1 44.0 40.0 24.0
1157 1 48.0 40.0 24.0
1158 1 0.0 44.0 24.0
1159 1 4.0 44.0 24.0
1160 1 8.0 44.0 24.0
1161 1 12.0 44.0 24.0
1162 1 16.0 44.0 24.0
1163 1 20.0 44.0 24.0
1164 1 24.0 44.0 24.0
1165 1 28.0 44.0 24.0
1166 1 32.0 44.0 24.0
1167 1 36.0 44.0 24.0
1168 1 40.0 44.0 24.0
1169 1 44.0 44.0 24.0
1170 1 48.0 44.0 24.0
1171 1 0.0 48.0 24.0
1172 1 4.0 48.0 24.0
1173 1 8.0 48.0 24.0
1174 1 12.0 48.0 24.0
1175 1 16.0 48.0 24.0
1176 1 20.0 48.0 24.0
1177 1 24.0 48.0 24.0
1178 1 28.0 48.0 24.0
1179 1 32.0 48.0 24.0
1180 1 36.0 48.0 24.0
1181 1 40.0 48.0 24.0
1182 1 44.0 48.0 24.0
1183 1 48.0 48.0 24.0
1184 1 0.0 0.0 28.0
1185 1 4.0 0.0 28.0
1186 1 8.0 0.0 28.0
1187 1 12.0 0.0 28.0
1188 1 16.0 0.0 28.0
1189 1 20.0 0.0 28.0
1190 1 24.0 0.0 28.0
1191 1 28.0 0.0 28.0
1192 1 32.0 0.0 28.0
1193 1 36.0 0.0 28.0
1194 1 40.0 0.0 28.0
1195 1 44.0 0.0 28.0
1196 1 48.0 0.0 28.0
1197 1 0.0 4.0 28.0
1198 1 4.0 4.0 28.0
1199 1 8.0 4.0 28.0
1200 1 12.0 4.0 28.0
1201 1 16.0 4.0 28.0
1202 1 20.0 4.0 28.0
1203 1 24.0 4.0 28.0
1204 1 28.0 4.0 28.0
1205 1 32.0 4.0 28.0
1206 1 36.0 4.0 28.0
1207 1 40.0 4.0 28.0
1208 1 44.0 4.0 28.0
1209 1 48.0 4.0 28.0
1210 1 0.0 8.0 28.0
1211 1 4.0 8.0 28.0
1212 1 8.0 8.0 28.0
1213 1 12.0 8.0 28.0
1214 1 16.0 8.0 28.0
1215 1 20.0 8.0 28.0
1216 1 24.0 8.0 28.0
1217 1 28.0 8.0 28.0
1218 1 32.0 8.0 28.0
1219 1 36.0 8.0 28.0
1220 1 40.0 8.0 28.0
1221 1 44.0 8.0 28.0
1222 1 48.0 8.0 28.0
1223 1 0.0 12.0 28.0
1224 1 4.0 12.0 28.0
1225 1 8.0 12.0 28.0
1226 1 12.0 12.0 28.0
1227 1 16.0 12.0 28.0
1228 1 20.0 12.0 28.0
1229 1 24.0 12.0 28.0
1230 1 28.0 12.0 28.0
1231 1 32.0 12.0 28.0
1232 1 36.0 12.0 28.0
1233 1 40.0 12.0 28.0
1234 1 44.0 12.0 28.0
1235 1 48.0 12.0 28.0
1236 1 0.0 16.0 28.0
1237 1 4.0 16.0 28.0
1238 1 8.0 16.0 28.0
1239 1 12.0 16.0 28.0
1240 1 16.0 16.0 28.0
1241 1 20.0 16.0 28.0
1242 1 24.0 16.0 28.0
1243 1 28.0 16.0 28.0
1244 1 32.0 16.0 28.0
1245 1 36.0 16.0 28.0
1246 1 40.0 16.0 28.0
1247 1 44.0 16.0 28.0
1248 1 48.0 16.0 28.0
1249 1 0.0 20.0 28.0
1250 1 4.0 20.0 28.0
1251 1 8.0 20.0 28.0
1252 1 12.0 20.0 28.0
1253 1 16.0 20.0 28.0
1254 1 20.0 20.0 28.0
1255 1 24.0 20.0 28.0
1256 1 28.0 20.0 28.0
1257 1 32.0 20.0 28.0
1258 1 36.0 20.0 28.0
1259 1 40.0 20.0 28.0
1260 1 44.0 20.0 28.0
1261 1 48.0 20.0 28.0
1262 1 0.0 24.0 28.0
1263 1 4.0 24.0 28.0
1264 1 8.0 24.0 28.0
1265 1 12.0 24.0 28.0
1266 1 16.0 24.0 28.0
1267 1 20.0 24.0 28.0
1268 1 24.0 24.0 28.0
1269 1 28.0 24.0 28.0
1270 1 32.0 24.0 28.0
1271 1 36.0 24.0 28.0
1272 1 40.0 24.0 28.0
1273 1 44.0 24.0 28.0
1274 1 48.0 24.0 28.0
1275 1 0.0 28.0 28.0
1276 1 4.0 28.0 28.0
1277 1 8.0 28.0 28.0
1278 1 12.0 28.0 28.0
1279 1 16.0 28.0 28.0
1280 1 20.0 28.0 28.0
1281 1 24.0 28.0 28.0
1282 1 28.0 28.0 28.0
1283 1 32.0 28.0 28.0
1284 1 36.0 28.0 28.0
1285 1 40.0 28.0 28.0
1286 1 44.0 28.0 28.0
1287 1 48.0 28.0 28.0
1288 1 0.0 32.0 28.0
1289 1 4.0 32.0 28.0
1290 1 8.0 32.0 28.0
1291 1 12.0 32.0 28.0
1292 1 16.0 32.0 28.0
1293 1 20.0 32.0 28.0
1294 1 24.0 32.0 28.0
1295 1 28.0 32.0 28.0
1296 1 32.0 32.0 28.0
1297 1 36.0 32.0 28.0
1298 1 40.0 32.0 28.0
1299 1 44.0 32.0 28.0
1300 1 48.0 32.0 28.0
1301 1 0.0 36.0 28.0
1302 1 4.0 36.0 28.0
1303 1 8.0 36.0 28.0
1304 1 12.0 36.0 28.0
1305 1 16.0 36.0 28.0
1306 1 20.0 36.0 28.0
1307 1 24.0 36.0 28.0
1308 1 28.0 36.0 28.0
1309 1 32.0 36.0 28.0
1310 1 36.0 36.0 28.0
1311 1 40.0 36.0 28.0
1312 1 44.0 36.0 28.0
1313 1 48.0 36.0 28.0
1314 1 0.0 40.0 28.0
1315 1 4.0 40.0 28.0
1316 1 8.0 40.0 28.0
1317 1 12.0 40.0 28.0
1318 1 16.0 40.0 28.0
1319 1 20.0 40.0 28.0
1320 1 24.0 40.0 28.0
1321 1 28.0 40.0 28.0
1322 1 32.0 40.0 28.0
1323 1 36.0 40.0 28.0
1324 1 40.0 40.0 28.0
1325 1 44.0 40.0 28.0
1326 1 48.0 40.0 28.0
1327 1 0.0 44.0 28.0
1328 1 4.0 44.0 28.0
1329 1 8.0 44.0 28.0
1330 1 12.0 44.0 28.0
1331 1 16.0 44.0 28.0
1332 1 20.0 44.0 28.0
1333 1 24.0 44.0 28.0
1334 1 28.0 44.0 28.0
1335 1 32.0 44.0 28.0
1336 1 36.0 44.0 28.0
1337 1 40.0 44.0 28.0
1338 1 44.0 44.0 28.0
1339 1 48.0 44.0 28.0
1340 1 0.0 48.0 28.0
1341 1 4.0 48.0 28.0
1342 1 8.0 48.0 28.0
1343 1 12.0 48.0 28.0
1344 1 16.0 48.0 28.0
1345 1 20.0 48.0 28.0
1346 1 24.0 48.0 28.0
1347 1 28.0 48.0 28.0
1348 1 32.0 48.0 28.0
1349 1 36.0 48.0 28.0
1350 1 40.0 48.0 28.0
1351 1 44.0 48.0 28.0
1352 1 48.0 48.0 28.0
1353 1 0.0 0.0 32.0
1354 1 4.0 0.0 32.0
1355 1 8.0 0.0 32.0
1356 1 12.0 0.0 32.0
1357 1 16.0 0.0 32.0
1358 1 20.0 0.0 32.0
1359 1 24.0 0.0 32.0
1360 1 28.0 0.0 32.0
1361 1 32.0 0.0 32.0
1362 1 36.0 0.0 32.0
1363 1 40.0 0.0 32.0
1364 1 44.0 0.0 32.0
1365 1 48.0 0.0 32.0
1366 1 0.0 4.0 32.0
1367 1 4.0 4.0 32.0
1368 1 8.0 4.0 32.0
1369 1 12.0 4.0 32.0
1370 1 16.0 4.0 32.0
1371 1 20.0 4.0 32.0
1372 1 24.0 4.0 32.0
1373 1 28.0 4.0 32.0
1374 1 32.0 4.0 32.0
1375 1 36.0 4.0 32.0
1376 1 40.0 4.0 32.0
1377 1 44.0 4.0 32.0
1378 1 48.0 4.0 32.0
1379 1 0.0 8.0 32.0
1380 1 4.0 8.0 32.0
1381 1 8.0 8.0 32.0
1382 1 12.0 8.0 32.0
1383 1 16.0 8.0 32.0
1384 1 20.0 8.0 32.0
1385 1 24.0 8.0 32.0
1386 1 28.0 8.0 32.0
1387 1 32.0 8.0 32.0
1388 1 36.0 8.0 32.0
1389 1 40.0 8.0 32.0
1390 1 44.0 8.0 32.0
1391 1 48.0 8.0 32.0
1392 1 0.0 12.0 32.0
1393 1 4.0 12.0 32.0
1394 1 8.0 12.0 32.0
1395 1 12.0 12.0 32.0
1396 1 16.0 12.0 32.0
1397 1 20.0 12.0 32.0
1398 1 24.0 12.0 32.0
1399 1 28.0 12.0 32.0
1400 1 32.0 12.0 32.0
1401 1 36.0 12.0 32.0
1402 1 40.0 12.0 32.0
1403 1 44.0 12.0 32.0
1404 1 48.0 12.0 32.0
1405 1 0.0 16.0 32.0
1406 1 4.0 16.0 32.0
1407 1 8.0 16.0 32.0
1408 1 12.0 16.0 32.0
1409 1 16.0 16.0 32.0
1410 1 20.0 16.0 32.0
1411 1 24.0 16.0 32.0
1412 1 28.0 16.0 32.0
1413 1 32.0 16.0 32.0
1414 1 36.0 16.0 32.0
1415 1 40.0 16.0 32.0
1416 1 44.0 16.0 32.0
1417 1 48.0 16.0 32.0
1418 1 0.0 20.0 32.0
1419 1 4.0 20.0 32.0
1420 1 8.0 20.0 32.0
1421 1 12.0 20.0 32.0
1422 1 16.0 20.0 32.0
1423 1 20.0 20.0 32.0
1424 1 24.0 20.0 32.0
1425 1 28.0 20.0 32.0
1426 1 32.0 20.0 32.0
1427 1 36.0 20.0 32.0
1428 1 40.0 20.0 32.0
1429 1 44.0 20.0 32.0
1430 1 48.0 20.0 32.0
1431 1 0.0 24.0 32.0
1432 1 4.0 24.0 32.0
1433 1 8.0 24.0 32.0
1434 1 12.0 24.0 32.0
1435 1 16.0 24.0 32.0
1436 1 20.0 24.0 32.0
1437 1 24.0 24.0 32.0
1438 1 28.0 24.0 32.0
1439 1 32.0 24.0 32.0
1440 1 36.0 24.0 32.0
1441 1 40.0 24.0 32.0
1442 1 44.0 24.0 32.0
1443 1 48.0 24.0 32.0
1444 1 0.0 28.0 32.0
1445 1 4.0 28.0 32.0
1446 1 8.0 28.0 32.0
1447 1 12.0 28.0 32.0
1448 1 16.0 28.0 32.0
1449 1 20.0 28.0 32.0
1450 1 24.0 28.0 32.0
1451 1 28.0 28.0 32.0
1452 1 32.0 28.0 32.0
1453 1 36.0 28.0 32.0
1454 1 40.0 28.0 32.0
1455 1 44.0 28.0 32.0
1456 1 48.0 28.0 32.0