LAMMPS (11 Aug 2017)
####################################################################################
# External variables that have to be passed on call
# Temperature 	= temperature of the system
# trjFile	= name of the .xtc trajectory file
# dataFile	= name of the .data input for Lammps
# nRand		= random number as seed for the velocity creation
# Timestep	= timestep in fs
# Eps		= LJ epsilon of mW C interaction
# Sigma		= LJ epsilon of mW C interaction
# nTimesteps	= number of timesteps to run
# nStride       = stride of thermo and trajectory output
# pass variables to the script via ${variable_name}
#####################################################################################

units real
dimension 3
newton on
processors * * *
boundary p p p
atom_style atomic
box tilt large
read_data liq.data
  orthogonal box = (-0.005 0.0045 0.008999) to (45.195 45.2045 45.209)
  1 by 1 by 2 MPI processor grid
  reading atoms ...
  3000 atoms


###################### MASS ######################

mass 1 18.015


###################### GROUPS ######################

group mW type 1
3000 atoms in group mW


###################### INTERACTIONS ######################

pair_style sw  # stilinger-weber potl
pair_coeff * * mW-mW.sw mW


###################### INTERACTIONS ######################

neighbor 2.0 bin
timestep ${Timestep}
timestep 10
min_style cg
run_style verlet


###################### COMPUTES ######################

compute mWtemp mW temp
thermo $(v_psStride*1000/v_Timestep)
thermo 500
thermo_style custom step time etotal c_mWtemp ke pe enthalpy temp press vol density cpu
thermo_modify flush yes


###################### FIX ######################

#fix wallz mW wall/lj93 zlo 0.001 0.5 2 5
#fix_modify wallz energy yes


###################### RUNNING ######################

dump d1 all xtc $(v_psStride*1000/v_Timestep) ${trjFile}
dump d1 all xtc 500 ${trjFile}
dump d1 all xtc 500 433-0.001/trj.xtc


###################### MINIMIZATION ######################

minimize 1e-13 1e-15 5000 50000
WARNING: Using 'neigh_modify every 1 delay 0 check yes' setting during minimization (../min.cpp:168)
Neighbor list info ...
  update every 1 steps, delay 0 steps, check yes
  max neighbors/atom: 2000, page size: 100000
  master list distance cutoff = 6.09869
  ghost atom cutoff = 6.09869
  binsize = 3.04935, bins = 15 15 15
  1 neighbor lists, perpetual/occasional/extra = 1 0 0
  (1) pair sw, perpetual
      attributes: full, newton on
      pair build: full/bin/atomonly
      stencil: full/bin/3d
      bin: standard
Per MPI rank memory allocation (min/avg/max) = 4.117 | 4.118 | 4.119 Mbytes
Step Time TotEng c_mWtemp KinEng PotEng Enthalpy Temp Press Volume Density CPU 
       0            0    1081442.9            0            0    1081442.9    2680077.2            0    1187019.7    92345.414   0.97182764            0 
     500         5000   -33648.094            0            0   -33648.094   -35297.219            0   -1224.5093    92345.414   0.97182764      3.34558 
     593         5930   -33651.026            0            0   -33651.026    -35278.87            0   -1208.7086    92345.414   0.97182764     4.291547 
Loop time of 4.29157 on 2 procs for 593 steps with 3000 atoms

97.4% CPU use with 2 MPI tasks x no OpenMP threads

Minimization stats:
  Stopping criterion = linesearch alpha is zero
  Energy initial, next-to-last, final = 
         1081442.87387     -33651.0257623     -33651.0257623
  Force two-norm initial, final = 5.79938e+06 0.0752938
  Force max component initial, final = 2.35806e+06 0.0170692
  Final line search alpha, max atom move = 1.90735e-06 3.25569e-08
  Iterations, force evaluations = 593 920

MPI task timing breakdown:
Section |  min time  |  avg time  |  max time  |%varavg| %total
---------------------------------------------------------------
Pair    | 3.7195     | 3.9096     | 4.0996     |   9.6 | 91.10
Neigh   | 0.080123   | 0.081649   | 0.083176   |   0.5 |  1.90
Comm    | 0.055538   | 0.24665    | 0.43775    |  38.5 |  5.75
Output  | 0.00049    | 0.0005035  | 0.000517   |   0.0 |  0.01
Modify  | 0          | 0          | 0          |   0.0 |  0.00
Other   |            | 0.05322    |            |       |  1.24

Nlocal:    1500 ave 1518 max 1482 min
Histogram: 1 0 0 0 0 0 0 0 0 1
Nghost:    2238.5 ave 2251 max 2226 min
Histogram: 1 0 0 0 0 0 0 0 0 1
Neighs:    0 ave 0 max 0 min
Histogram: 2 0 0 0 0 0 0 0 0 0
FullNghs:  43339 ave 44415 max 42263 min
Histogram: 1 0 0 0 0 0 0 0 0 1

Total # of neighbors = 86678
Ave neighs/atom = 28.8927
Neighbor list builds = 31
Dangerous builds = 0


###################### VELOCITIES ######################

velocity mW create ${T0} ${nRand} dist gaussian mom yes rot yes
velocity mW create 433 ${nRand} dist gaussian mom yes rot yes
velocity mW create 433 11278 dist gaussian mom yes rot yes


###################### EQUILIBRATION ######################

timestep $(v_Timestep/2)
timestep 5
fix f1 mW nvt temp ${T0} ${T0} $(100*v_Timestep/2) tchain 10
fix f1 mW nvt temp 433 ${T0} $(100*v_Timestep/2) tchain 10
fix f1 mW nvt temp 433 433 $(100*v_Timestep/2) tchain 10
fix f1 mW nvt temp 433 433 500 tchain 10
fix_modify f1 temp mWtemp
WARNING: Temperature for fix modify is not for group all (../fix_nh.cpp:1395)
run $(500*1000/v_Timestep/2)
run 25000
Per MPI rank memory allocation (min/avg/max) = 2.994 | 2.994 | 2.995 Mbytes
Step Time TotEng c_mWtemp KinEng PotEng Enthalpy Temp Press Volume Density CPU 
     593            0   -29780.244          433    3870.7816   -33651.026   -28827.567          433    707.38263    92345.414   0.97182764            0 
    1000         2035   -28628.002    253.98565    2270.4919   -30898.494   -29722.975    253.98565   -813.04068    92345.414   0.97182764         1.99 
    1500         4535   -27102.185    313.82702    2805.4407   -29907.626   -27816.596    313.82702   -530.46515    92345.414   0.97182764     4.578282 
    2000         7035   -25697.615    382.07781    3415.5652   -29113.181   -25891.687    382.07781   -144.10241    92345.414   0.97182764     7.363515 
    2500         9535   -24803.674    425.20026    3801.0562    -28604.73   -23911.328    425.20026    662.58572    92345.414   0.97182764     9.951159 
    3000        12035   -24894.927    422.46552    3776.6091   -28671.537   -24083.274    422.46552    602.66965    92345.414   0.97182764    12.601188 
    3500        14535   -24630.152    434.65832     3885.606   -28515.758   -23504.964    434.65832    835.47581    92345.414   0.97182764    15.273168 
    4000        17035   -24659.104    436.93521    3905.9601   -28565.064   -23145.503    436.93521     1123.881    92345.414   0.97182764    17.950679 
    4500        19535   -24673.463    436.54114    3902.4374     -28575.9   -23644.782    436.54114    763.81728    92345.414   0.97182764    20.636895 
    5000        22035   -24777.774      423.796    3788.5029   -28566.277   -23255.859      423.796    1130.0541    92345.414   0.97182764    23.301888 
    5500        24535    -24824.54    425.13368     3800.461   -28625.001     -24193.2    425.13368    468.78273    92345.414   0.97182764    25.918131 
    6000        27035   -24782.211    426.58706    3813.4534   -28595.664   -23383.275    426.58706     1038.739    92345.414   0.97182764    28.593265 
    6500        29535   -24691.409    434.24353     3881.898   -28573.307   -23300.507    434.24353     1032.774    92345.414   0.97182764     31.25416 
    7000        32035   -24769.772    422.38503    3775.8896   -28545.661   -23581.201    422.38503      882.539    92345.414   0.97182764    33.887896 
    7500        34535   -24888.139    425.32152    3802.1402   -28690.279    -23914.62    425.32152    722.85832    92345.414   0.97182764    36.522137 
    8000        37035    -24804.63    415.92491    3718.1397   -28522.769   -23579.667    415.92491     909.5609    92345.414   0.97182764    39.265617 
    8500        39535   -24783.265    431.72109    3859.3488   -28642.614   -24477.275    431.72109    227.20441    92345.414   0.97182764    41.909177 
    9000        42035   -24692.411    433.81212    3878.0415   -28570.452   -24109.076    433.81212    433.13857    92345.414   0.97182764    44.624964 
    9500        44535   -24638.671    444.58029     3974.303   -28612.974   -24154.452    444.58029    359.54314    92345.414   0.97182764    47.260209 
   10000        47035   -24693.741     440.6056    3938.7714   -28632.513   -24130.549     440.6056     418.1817    92345.414   0.97182764    49.921542 
   10500        49535   -24764.929    432.99662    3870.7514    -28635.68   -24139.464    432.99662    464.42094    92345.414   0.97182764    52.558071 
   11000        52035   -24832.488    425.37214    3802.5927   -28635.081   -23578.162    425.37214    931.36417    92345.414   0.97182764    55.296933 
   11500        54535   -24818.844    427.34089    3820.1922   -28639.037   -24622.213    427.34089    146.00302    92345.414   0.97182764    57.952219 
   12000        57035   -24878.726    428.01343    3826.2044   -28704.931   -24424.165    428.01343    337.52161    92345.414   0.97182764     60.64174 
   12500        59535   -24761.114    432.52082     3866.498   -28627.612    -24583.29    432.52082     132.0378    92345.414   0.97182764    63.274713 
   13000        62035   -24685.414    437.47298    3910.7675   -28596.182   -24157.672    437.47298    391.86002    92345.414   0.97182764     65.92951 
   13500        64535   -24702.235    424.10874    3791.2986   -28493.533   -23304.386    424.10874    1037.9317    92345.414   0.97182764    68.719282 
   14000        67035   -24785.235     435.2095    3890.5333   -28675.768   -24120.377     435.2095    493.67051    92345.414   0.97182764    71.400679 
   14500        69535   -24717.673     430.4222    3847.7374    -28565.41   -23340.453     430.4222    1022.6146    92345.414   0.97182764    74.086888 
   15000        72035   -24714.926    432.45531    3865.9124   -28580.838   -23785.016    432.45531    690.47773    92345.414   0.97182764    76.746067 
   15500        74535   -24715.094    435.13915    3889.9044   -28604.998    -23485.62    435.13915    912.91043    92345.414   0.97182764    79.431063 
   16000        77035   -24680.415    442.55566    3956.2039   -28636.619   -23784.858    442.55566     664.9701    92345.414   0.97182764     82.09785 
   16500        79535   -24852.055    424.71275    3796.6981   -28648.753   -24248.335    424.71275    448.27506    92345.414   0.97182764    84.735996 
   17000        82035   -24580.384    448.53313    4009.6392   -28590.023   -23514.573    448.53313     791.3866    92345.414   0.97182764    87.426252 
   17500        84535   -24742.386    436.01634     3897.746   -28640.132    -23654.69    436.01634    807.63785    92345.414   0.97182764    90.048583 
   18000        87035   -24710.709    429.89467    3843.0217   -28553.731   -23529.903    429.89467    876.77364    92345.414   0.97182764    92.705718 
   18500        89535   -24607.062    440.49352    3937.7695   -28544.832   -23740.041    440.49352    643.78143    92345.414   0.97182764    95.378435 
   19000        92035    -24693.39     434.2232    3881.7163   -28575.106   -24172.578     434.2232    386.71373    92345.414   0.97182764    98.147921 
   19500        94535   -24720.223    433.78131     3877.766   -28597.989    -23624.73    433.78131    813.42665    92345.414   0.97182764     100.8397 
   20000        97035   -24828.086    434.12434    3880.8326   -28708.918   -24165.076    434.12434    492.29823    92345.414   0.97182764    103.48091 
   20500        99535   -24857.782    426.29608    3810.8522   -28668.634   -24208.943    426.29608    481.77682    92345.414   0.97182764    106.15119 
   21000       102035   -24790.903    427.12646    3818.2753   -28609.178   -24495.624    427.12646    219.25056    92345.414   0.97182764    108.80127 
   21500       104535   -24742.861    424.33978     3793.364   -28536.225   -23613.108    424.33978    838.86565    92345.414   0.97182764    111.42764 
   22000       107035   -24716.014    433.99072    3879.6381   -28595.652   -24210.838    433.99072     375.1042    92345.414   0.97182764    114.08709 
   22500       109535   -24616.463    439.99755    3933.3358   -28549.799   -23470.435    439.99755     850.9506    92345.414   0.97182764    116.75152 
   23000       112035   -24683.451    432.79664    3868.9636   -28552.415   -23685.033    432.79664    741.34669    92345.414   0.97182764    119.40269 
   23500       114535   -24887.139    417.37337    3731.0881   -28618.227   -24001.453    417.37337    657.64058    92345.414   0.97182764     122.0471 
   24000       117035   -24867.285     429.1773    3836.6088   -28703.894   -23898.392     429.1773    719.42393    92345.414   0.97182764    124.72113 
   24500       119535   -24693.224    438.24658    3917.6831   -28610.907   -24095.316    438.24658    443.95921    92345.414   0.97182764    127.52541 
   25000       122035   -24657.381    433.34467    3873.8627   -28531.244    -23592.81    433.34467    790.46623    92345.414   0.97182764    130.20494 
   25500       124535   -24952.194     425.7568    3806.0313   -28758.225   -24829.708     425.7568    90.947919    92345.414   0.97182764    132.86608 
   25593       125000   -24896.207    427.07024    3817.7728    -28713.98   -24244.246    427.07024    484.09517    92345.414   0.97182764    133.37089 
Loop time of 133.371 on 2 procs for 25000 steps with 3000 atoms

Performance: 80.977 ns/day, 0.296 hours/ns, 187.447 timesteps/s
98.4% CPU use with 2 MPI tasks x no OpenMP threads

MPI task timing breakdown:
Section |  min time  |  avg time  |  max time  |%varavg| %total
---------------------------------------------------------------
Pair    | 122.52     | 123.05     | 123.59     |   4.8 | 92.27
Neigh   | 5.813      | 5.8205     | 5.8281     |   0.3 |  4.36
Comm    | 2.8961     | 3.4346     | 3.9731     |  29.1 |  2.58
Output  | 0.026372   | 0.027144   | 0.027917   |   0.5 |  0.02
Modify  | 0.86977    | 0.87215    | 0.87454    |   0.3 |  0.65
Other   |            | 0.1617     |            |       |  0.12

Nlocal:    1500 ave 1507 max 1493 min
Histogram: 1 0 0 0 0 0 0 0 0 1
Nghost:    2241 ave 2254 max 2228 min
Histogram: 1 0 0 0 0 0 0 0 0 1
Neighs:    0 ave 0 max 0 min
Histogram: 2 0 0 0 0 0 0 0 0 0
FullNghs:  44301 ave 44453 max 44149 min
Histogram: 1 0 0 0 0 0 0 0 0 1

Total # of neighbors = 88602
Ave neighs/atom = 29.534
Neighbor list builds = 2203
Dangerous builds = 376


###################### RUN ######################

unfix f1
fix f2 mW nvt temp ${T0} ${T1} $(100*v_Timestep) tchain 10
fix f2 mW nvt temp 433 ${T1} $(100*v_Timestep) tchain 10
fix f2 mW nvt temp 433 0.001 $(100*v_Timestep) tchain 10
fix f2 mW nvt temp 433 0.001 1000 tchain 10
fix_modify f2 temp mWtemp
WARNING: Temperature for fix modify is not for group all (../fix_nh.cpp:1395)

reset_timestep 0
run 0
Per MPI rank memory allocation (min/avg/max) = 3.003 | 3.004 | 3.004 Mbytes
Step Time TotEng c_mWtemp KinEng PotEng Enthalpy Temp Press Volume Density CPU 
       0       125000   -24896.207    427.07024    3817.7728    -28713.98   -24244.246    427.07024    484.09517    92345.414   0.97182764            0 
Loop time of 3e-06 on 2 procs for 0 steps with 3000 atoms

100.0% CPU use with 2 MPI tasks x no OpenMP threads

MPI task timing breakdown:
Section |  min time  |  avg time  |  max time  |%varavg| %total
---------------------------------------------------------------
Pair    | 0          | 0          | 0          |   0.0 |  0.00
Neigh   | 0          | 0          | 0          |   0.0 |  0.00
Comm    | 0          | 0          | 0          |   0.0 |  0.00
Output  | 0          | 0          | 0          |   0.0 |  0.00
Modify  | 0          | 0          | 0          |   0.0 |  0.00
Other   |            | 3e-06      |            |       |100.00

Nlocal:    1500 ave 1500 max 1500 min
Histogram: 2 0 0 0 0 0 0 0 0 0
Nghost:    2238.5 ave 2245 max 2232 min
Histogram: 1 0 0 0 0 0 0 0 0 1
Neighs:    0 ave 0 max 0 min
Histogram: 2 0 0 0 0 0 0 0 0 0
FullNghs:  44370 ave 44440 max 44300 min
Histogram: 1 0 0 0 0 0 0 0 0 1

Total # of neighbors = 88740
Ave neighs/atom = 29.58
Neighbor list builds = 0
Dangerous builds = 0

timestep ${Timestep}
timestep 10
run $(v_nsRunTime*1000000/v_Timestep)
run 500000
Per MPI rank memory allocation (min/avg/max) = 3.003 | 3.004 | 3.004 Mbytes
Step Time TotEng c_mWtemp KinEng PotEng Enthalpy Temp Press Volume Density CPU 
       0       125000   -24896.207    427.07024    3817.7728    -28713.98   -24244.246    427.07024    484.09517    92345.414   0.97182764            0 
     500       130000   -24634.541    433.02729    3871.0255   -28505.567   -23286.031    433.02729    1001.2971    92345.414   0.97182764     2.696029 
    1000       135000   -24697.271    435.06421    3889.2345   -28586.505   -24056.951    435.06421    475.45099    92345.414   0.97182764     5.435454 
    1500       140000   -24839.395    424.93731    3798.7055   -28638.101   -23659.032    424.93731    876.44408    92345.414   0.97182764     8.101728 
    2000       145000   -24808.834    426.79604    3815.3216   -28624.156    -24079.45    426.79604    541.58296    92345.414   0.97182764    10.808153 
    2500       150000   -24727.189    433.61644    3876.2922   -28603.481   -23946.379    433.61644    579.76777    92345.414   0.97182764     13.48742 
    3000       155000   -24698.875    431.28065    3855.4116   -28554.287   -24513.216    431.28065    137.85555    92345.414   0.97182764    16.168689 
    3500       160000   -24680.725    433.38376    3874.2121   -28554.938   -23690.985    433.38376    734.90303    92345.414   0.97182764    18.823116 
    4000       165000    -24776.87    432.93083    3870.1632   -28647.033   -23588.368    432.93083    882.48801    92345.414   0.97182764    21.810403 
    4500       170000   -24781.723     433.0283    3871.0345   -28652.758   -24739.554     433.0283    31.311407    92345.414   0.97182764     24.62093 
    5000       175000   -24695.792     435.1686    3890.1677   -28585.959   -24408.317     435.1686    213.45557    92345.414   0.97182764     27.31797 
    5500       180000    -24785.91    426.86943    3815.9776   -28601.888   -23919.359    426.86943    643.43246    92345.414   0.97182764    29.989384 
    6000       185000   -24817.015    422.71511    3778.8403   -28595.856   -23705.036    422.71511    825.66826    92345.414   0.97182764    32.695638 
    6500       190000   -24871.439    429.29426    3837.6543   -28709.093   -23815.146    429.29426    784.31947    92345.414   0.97182764    35.371647 
    7000       195000   -24794.694    430.77922     3850.929   -28645.623   -23614.367    430.77922    876.41727    92345.414   0.97182764    38.049699 
    7500       200000   -24900.483    420.01075    3754.6648   -28655.148   -24533.877    420.01075     272.2128    92345.414   0.97182764    40.726929 
    8000       205000   -24872.735     428.8285    3833.4907   -28706.225   -24265.166     428.8285    451.13263    92345.414   0.97182764     43.40609 
    8500       210000   -24837.429    428.07518    3826.7564   -28664.185   -24010.365    428.07518    614.11218    92345.414   0.97182764    46.100468 
    9000       215000   -24691.466    429.29204    3837.6344     -28529.1   -24511.547    429.29204    133.59329    92345.414   0.97182764    48.786585 
    9500       220000   -24705.671    425.66809    3805.2383   -28510.909   -24236.368    425.66809    348.46694    92345.414   0.97182764    51.451352 
   10000       225000   -24780.463    431.64382     3858.658   -28639.121   -24453.833    431.64382    242.52979    92345.414   0.97182764    54.262071 
   10500       230000   -24902.412    424.49944    3794.7913   -28697.203   -24035.274    424.49944    643.86838    92345.414   0.97182764    56.916148 
   11000       235000   -24806.536     430.2289    3846.0094   -28652.545   -23308.993     430.2289    1111.9569    92345.414   0.97182764    59.594703 
   11500       240000   -24753.626    430.05493    3844.4542    -28598.08   -24069.444    430.05493    508.01978    92345.414   0.97182764    62.279427 
   12000       245000   -24836.863    422.42813    3776.2749   -28613.138   -23811.055    422.42813     761.6842    92345.414   0.97182764    64.995355 
   12500       250000   -24886.587    421.88989    3771.4633    -28658.05   -24271.374    421.88989    456.80839    92345.414   0.97182764    67.668265 
   13000       255000   -24791.238    425.33615     3802.271   -28593.509   -24096.277    425.33615    516.02297    92345.414   0.97182764    70.353794 
   13500       260000   -24872.698    425.73497    3805.8362   -28678.534   -24035.752    425.73497    621.44977    92345.414   0.97182764    73.266004 
   14000       265000   -24906.223    423.18299    3783.0229   -28689.246   -24743.301    423.18299    120.97282    92345.414   0.97182764    76.985216 
   14500       270000   -24754.752    428.20906    3827.9532   -28582.705   -24055.351    428.20906    519.31951    92345.414   0.97182764    80.226374 
   15000       275000   -24828.308    428.08009    3826.8003   -28655.108   -23792.401    428.08009    769.18257    92345.414   0.97182764    85.891714 
   15500       280000   -24955.921    422.31032    3775.2217   -28731.142   -24454.091    422.31032    372.61911    92345.414   0.97182764    89.022197 
   16000       285000   -25046.941    415.71959    3716.3043   -28763.245   -24130.646    415.71959    680.36854    92345.414   0.97182764    92.141176 
   16500       290000    -24979.14    419.33865    3748.6566   -28727.796   -25017.932    419.33865   -28.804335    92345.414   0.97182764    94.846138 
   17000       295000   -24961.727    421.20853    3765.3723     -28727.1   -24780.557    421.20853    134.52279    92345.414   0.97182764    97.556355 
   17500       300000   -25098.372    411.62275    3679.6807   -28778.053   -24578.313    411.62275      386.155    92345.414   0.97182764    100.22857 
   18000       305000   -25083.756    417.20634    3729.5949   -28813.351   -24851.193    417.20634    172.68318    92345.414   0.97182764    102.98796 
   18500       310000   -24934.222    420.50832    3759.1128   -28693.335   -24311.265    420.50832    462.55859    92345.414   0.97182764    106.56422 
   19000       315000    -24977.24    422.82433    3779.8167   -28757.057   -24828.743    422.82433    110.26234    92345.414   0.97182764    110.60574 
   19500       320000   -25017.224    410.54277    3670.0263    -28687.25   -24204.247    410.54277    603.65254    92345.414   0.97182764    113.73051 
   20000       325000   -24998.246     409.5144    3660.8332   -28659.079    -23852.84     409.5144    850.48825    92345.414   0.97182764    119.39415 
   20500       330000   -24924.696    413.40799    3695.6398   -28620.336   -24795.749    413.40799    95.745803    92345.414   0.97182764    124.81704 
   21000       335000   -25163.118    402.78056    3600.6364   -28763.754   -24522.942    402.78056    475.34428    92345.414   0.97182764    128.98945 
   21500       340000   -25118.936    414.61328    3706.4144    -28825.35   -24105.686    414.61328    752.35928    92345.414   0.97182764    133.58663 
   22000       345000   -25049.102    414.20734    3702.7856   -28751.887   -24763.168    414.20734    212.31134    92345.414   0.97182764    136.89383 
   22500       350000   -25011.268    415.63659    3715.5622    -28726.83   -23856.023    415.63659    857.79344    92345.414   0.97182764    140.98455 
   23000       355000   -24929.095    416.02322    3719.0185   -28648.114   -24542.614    416.02322    286.97054    92345.414   0.97182764    145.01677 
   23500       360000   -25126.921    406.68239    3635.5166   -28762.438   -24388.218    406.68239    548.50282    92345.414   0.97182764    148.88473 
   24000       365000   -25011.149     421.4111    3767.1832   -28778.332   -24652.948     421.4111    265.97219    92345.414   0.97182764    152.22555 
   24500       370000   -24964.316    418.49964    3741.1563   -28705.472   -23736.117    418.49964    911.96321    92345.414   0.97182764    155.47898 
   25000       375000   -25093.082    404.76842    3618.4068   -28711.489   -24939.985    404.76842    113.67841    92345.414   0.97182764    158.40029 
   25500       380000   -25147.329    414.56255    3705.9609   -28853.289   -24171.936    414.56255    724.24988    92345.414   0.97182764     162.5358 
   26000       385000   -25124.878    407.58471    3643.5829   -28768.461   -24669.516    407.58471    338.11538    92345.414   0.97182764    167.49078 
   26500       390000   -25097.495    412.29019    3685.6473   -28783.142   -24545.408    412.29019    409.93665    92345.414   0.97182764     170.9044 
   27000       395000   -25038.383    411.72647    3680.6079    -28718.99   -24395.763    411.72647    477.15864    92345.414   0.97182764    174.55128 
   27500       400000   -25136.823    413.41792    3695.7285   -28832.552    -25513.03    413.41792   -279.34093    92345.414   0.97182764    177.36901 
   28000       405000    -25025.81     409.9628    3664.8417   -28690.651    -24391.01     409.9628     471.3519    92345.414   0.97182764    180.77436 
   28500       410000   -25101.117    410.97986    3673.9336   -28775.051   -23807.306    410.97986    960.68203    92345.414   0.97182764    185.61518 
   29000       415000   -25231.537    400.49065    3580.1659   -28811.703   -24332.716    400.49065    667.39312    92345.414   0.97182764    189.71382 
   29500       420000   -25286.055    397.03285    3549.2551   -28835.311   -24442.909    397.03285    626.05435    92345.414   0.97182764    195.17016 
   30000       425000    -25101.09    410.27795    3667.6589   -28768.749    -24611.41    410.27795    363.59749    92345.414   0.97182764     198.1095 
   30500       430000   -25104.956    405.54629    3625.3605   -28730.316   -24860.679    405.54629    181.38063    92345.414   0.97182764    201.30925 
   31000       435000   -25181.608     408.3715    3650.6164   -28832.225   -24805.844     408.3715    279.01265    92345.414   0.97182764    204.27639 
   31500       440000    -25118.95    418.45291    3740.7386   -28859.688   -24279.159    418.45291    623.56237    92345.414   0.97182764    207.10202 
   32000       445000   -25218.724    407.69094    3644.5325   -28863.257   -25343.059    407.69094   -92.320946    92345.414   0.97182764    209.92648 
   32500       450000   -25290.266     404.6064    3616.9584   -28907.224   -24487.657     404.6064    595.95375    92345.414   0.97182764    214.54352 
   33000       455000   -25230.958    401.10355    3585.6449   -28816.603   -24602.455    401.10355    466.67686    92345.414   0.97182764     217.6047 
   33500       460000   -25242.971    402.15284    3595.0249   -28837.996   -24428.734    402.15284     604.5879    92345.414   0.97182764    220.54206 
   34000       465000   -25196.114    404.93978    3619.9386   -28816.053   -24433.266    404.93978    566.43127    92345.414   0.97182764    223.61762 
   34500       470000   -25306.851     405.6139    3625.9649   -28932.816   -24661.441     405.6139    479.23085    92345.414   0.97182764    226.28731 
   35000       475000   -25376.807    396.75705    3546.7896   -28923.597   -24946.401    396.75705     319.5853    92345.414   0.97182764    231.41255 
   35500       480000   -25266.959    402.12492    3594.7753   -28861.735   -25420.745    402.12492   -114.18915    92345.414   0.97182764    235.27981 
   36000       485000   -25300.192    407.18264    3639.9886    -28940.18   -24988.147    407.18264    231.69975    92345.414   0.97182764    237.95586 
   36500       490000   -25362.399    396.19759    3541.7883   -28904.187   -24733.439    396.19759    467.01534    92345.414   0.97182764    240.95666 
   37000       495000   -25268.805    406.92349    3637.6719   -28906.477   -25373.557    406.92349   -77.780264    92345.414   0.97182764    244.27771 
   37500       500000   -25131.531     402.1494    3594.9942   -28726.525   -23780.405     402.1494    1003.2399    92345.414   0.97182764    247.73982 
   38000       505000   -25099.679    411.53308    3678.8791   -28778.559   -24702.165    411.53308    295.16271    92345.414   0.97182764     251.4805 
   38500       510000    -25375.47    392.12756    3505.4045   -28880.874   -25689.425    392.12756   -233.11837    92345.414   0.97182764    259.14233 
   39000       515000    -25300.08    400.47606    3580.0355   -28880.116   -25270.474    400.47606    21.983664    92345.414   0.97182764    263.65282 
   39500       520000   -25412.239    395.15263    3532.4469   -28944.685    -25730.27    395.15263   -236.14527    92345.414   0.97182764     267.0508 
   40000       525000   -25377.027    390.08989    3487.1888   -28864.216   -25733.298    390.08989   -264.53869    92345.414   0.97182764    270.01081 
   40500       530000   -25302.745    398.45455    3561.9642    -28864.71   -25492.915    398.45455   -141.20494    92345.414   0.97182764    273.46851 
   41000       535000   -25276.764    403.96544    3611.2286   -28887.993    -24632.97    403.96544    478.03092    92345.414   0.97182764    276.61608 
   41500       540000   -25459.007    397.29971    3551.6406   -29010.648   -25533.231    397.29971   -55.112943    92345.414   0.97182764    279.33014 
   42000       545000   -25471.094    390.55173    3491.3174   -28962.411   -25300.046    390.55173    127.00679    92345.414   0.97182764    282.20992 
   42500       550000   -25340.638    399.64625    3572.6174   -28913.255   -25039.643    399.64625    223.49453    92345.414   0.97182764     285.2653 
   43000       555000   -25358.757    391.52345     3500.004   -28858.761   -25159.596    391.52345    147.88132    92345.414   0.97182764    288.11501 
   43500       560000   -25436.194    383.16695    3425.3015   -28861.495   -25613.055    383.16695   -131.32337    92345.414   0.97182764    291.19918 
   44000       565000   -25450.591     394.3673    3525.4265   -28976.017   -25365.705     394.3673     63.02956    92345.414   0.97182764    294.71043 
   44500       570000   -25334.648     396.2562    3542.3123    -28876.96   -25850.241     396.2562   -382.83881    92345.414   0.97182764     299.3028 
   45000       575000   -25353.775    405.08003    3621.1924   -28974.967   -25067.864    405.08003    212.29458    92345.414   0.97182764    303.20167 
   45500       580000   -25610.343      383.808    3431.0322   -29041.375   -25848.055      383.808   -176.50625    92345.414   0.97182764    306.27557 
   46000       585000   -25413.902    392.89785    3512.2904   -28926.193   -25821.272    392.89785   -302.48052    92345.414   0.97182764    308.95934 
   46500       590000   -25373.144    392.80287    3511.4414   -28884.585   -24918.535    392.80287    337.55621    92345.414   0.97182764     313.2021 
   47000       595000   -25480.506      388.208    3470.3657   -28950.872   -25594.814      388.208   -84.875717    92345.414   0.97182764    318.94994 
   47500       600000   -25519.884    386.66416    3456.5646   -28976.448   -25468.808    386.66416    37.924639    92345.414   0.97182764    322.20473 
   48000       605000   -25400.919    391.29139    3497.9296   -28898.849   -25557.101    391.29139   -115.96802    92345.414   0.97182764    327.42451 
   48500       610000   -25391.948    397.50967    3553.5176   -28945.465   -24965.957    397.50967    316.30732    92345.414   0.97182764    331.40519 
   49000       615000   -25428.811    387.02225    3459.7658   -28888.577    -25243.85    387.02225     137.3375    92345.414   0.97182764    334.64824 
   49500       620000    -25509.18    387.48954    3463.9431   -28973.123   -25497.762    387.48954    8.4778178    92345.414   0.97182764    337.61138 
   50000       625000   -25555.891    393.12528    3514.3235   -29070.214    -26194.21    393.12528   -473.96537    92345.414   0.97182764    340.68247 
   50500       630000   -25512.656    388.62774     3474.118   -28986.774   -24881.596    388.62774    468.57591    92345.414   0.97182764    343.31132 
   51000       635000    -25480.57    389.80514    3484.6433   -28965.213   -25156.398    389.80514    240.70439    92345.414   0.97182764    345.94261 
   51500       640000   -25408.745    384.45181    3436.7875   -28845.532   -25377.281    384.45181    23.362323    92345.414   0.97182764    348.54056 
   52000       645000   -25512.245    396.17792    3541.6125   -29053.857   -25501.514    396.17792    7.9679046    92345.414   0.97182764    351.17588 
   52500       650000   -25563.713    385.76999    3448.5713   -29012.284   -25703.907    385.76999   -104.09731    92345.414   0.97182764    353.92901 
   53000       655000   -25407.985     392.3744    3507.6111   -28915.596    -25036.76     392.3744    275.64232    92345.414   0.97182764    356.55584 
   53500       660000   -25433.393    387.78344    3466.5704   -28899.963   -25357.913    387.78344    56.045358    92345.414   0.97182764    359.19992 
   54000       665000   -25652.026    386.05606    3451.1286   -29103.155   -25958.354    386.05606   -227.45513    92345.414   0.97182764    361.84913 
   54500       670000    -25599.13    387.35667    3462.7553   -29061.885     -25557.8    387.35667    30.688588    92345.414   0.97182764    364.45773 
   55000       675000   -25606.423     379.2028    3389.8642   -28996.287   -25942.488     379.2028   -249.53563    92345.414   0.97182764    367.13842 
   55500       680000   -25416.025    393.49636    3517.6408   -28933.666   -25638.314    393.49636   -165.05439    92345.414   0.97182764    369.73036 
   56000       685000   -25402.662     392.1686    3505.7713   -28908.433   -25385.867     392.1686    12.470594    92345.414   0.97182764    372.34649 
   56500       690000   -25570.942    379.78932    3395.1074   -28966.049   -25633.714    379.78932    -46.60948    92345.414   0.97182764    374.96332 
   57000       695000   -25588.457    382.22133    3416.8482   -29005.305   -25562.882    382.22133    18.989764    92345.414   0.97182764    377.57299 
   57500       700000   -25600.738    380.39648    3400.5351   -29001.273   -25291.359    380.39648    229.72043    92345.414   0.97182764    380.19224 
   58000       705000   -25665.453    382.11203    3415.8711   -29081.324   -26062.199    382.11203   -294.59241    92345.414   0.97182764    382.83181 
   58500       710000   -25569.475     382.9911    3423.7296   -28993.205   -25836.284     382.9911   -198.11128    92345.414   0.97182764    385.44353 
   59000       715000   -25620.564    373.39162    3337.9155    -28958.48    -25268.39    373.39162    261.49702    92345.414   0.97182764    388.03762 
   59500       720000   -25644.208    382.51278    3419.4536   -29063.661   -26141.068    382.51278   -368.92934    92345.414   0.97182764    390.66917 
   60000       725000   -25637.166    381.82119    3413.2712   -29050.437   -25529.391    381.82119    80.025457    92345.414   0.97182764    393.30003 
   60500       730000   -25559.253    384.40167    3436.3392   -28995.592   -25236.445    384.40167    239.69112    92345.414   0.97182764    395.89529 
   61000       735000   -25561.389    393.30797    3515.9567   -29077.346   -25819.884    393.30797   -191.93782    92345.414   0.97182764    398.51243 
   61500       740000   -25684.905    376.91149    3369.3812   -29054.286   -25784.971    376.91149   -74.301005    92345.414   0.97182764    401.11391 
   62000       745000   -25682.347    381.85067    3413.5347   -29095.882   -26394.417    381.85067   -528.72647    92345.414   0.97182764    403.73642 
   62500       750000   -25661.762    380.11283    3397.9994   -29059.761   -25722.613    380.11283   -45.183351    92345.414   0.97182764    406.32743 
   63000       755000   -25831.062    375.63222    3357.9452   -29189.008   -26604.293    375.63222   -574.14026    92345.414   0.97182764    408.92141 
   63500       760000   -25600.651    380.68217     3403.089    -29003.74   -26125.809    380.68217   -389.94054    92345.414   0.97182764    411.51102 
   64000       765000   -25661.384    384.37214    3436.0753   -29097.459   -25936.927    384.37214   -204.59688    92345.414   0.97182764    414.22961 
   64500       770000   -25572.365    389.93881    3485.8382   -29058.203   -26272.928    389.93881   -520.18265    92345.414   0.97182764    416.80723 
   65000       775000   -25679.119     378.3641    3382.3667   -29061.485   -25737.682     378.3641   -43.484443    92345.414   0.97182764    419.40726 
   65500       780000   -25774.745    373.48835    3338.7802   -29113.525   -25957.053    373.48835   -135.36792    92345.414   0.97182764    422.03825 
   66000       785000   -25743.569    380.29528    3399.6304   -29143.199   -26178.901    380.29528   -323.24358    92345.414   0.97182764    424.64787 
   66500       790000   -25658.862    381.73072    3412.4624   -29071.324   -25954.104    381.73072    -219.2234    92345.414   0.97182764    427.27409 
   67000       795000   -25687.244    376.96775    3369.8841   -29057.128   -26068.243    376.96775    -282.8997    92345.414   0.97182764    429.88063 
   67500       800000   -25774.759    375.05214    3352.7596   -29127.518   -25685.081    375.05214    66.587692    92345.414   0.97182764    432.45861 
   68000       805000   -25716.026    378.47324    3383.3424   -29099.369   -25745.041    378.47324   -21.543983    92345.414   0.97182764    435.05209 
   68500       810000    -25730.29    373.85006    3342.0137   -29072.303   -25560.303    373.85006    126.21881    92345.414   0.97182764    437.61865 
   69000       815000   -25779.483    373.45124    3338.4484   -29117.932   -26043.187    373.45124   -195.80543    92345.414   0.97182764    440.23123 
   69500       820000   -25783.356    374.40455    3346.9705   -29130.327   -26221.667    374.40455   -325.45483    92345.414   0.97182764    442.85467 
   70000       825000   -25915.179    363.53542    3249.8064   -29164.986   -26413.046    363.53542    -369.6762    92345.414   0.97182764    445.46165 
   70500       830000   -25792.861    374.67035    3349.3466   -29142.208   -25799.844    374.67035   -5.1846451    92345.414   0.97182764    448.06072 
   71000       835000   -25893.347     370.0214    3307.7876   -29201.134   -25745.574     370.0214    109.72393    92345.414   0.97182764    450.84512 
   71500       840000   -25905.203    368.12178     3290.806   -29196.009   -26552.032    368.12178   -480.28389    92345.414   0.97182764    453.44882 
   72000       845000    -25851.99    376.65537    3367.0916   -29219.081   -25710.561    376.65537    105.01385    92345.414   0.97182764    456.15692 
   72500       850000   -25837.024    364.90598    3262.0585   -29099.082   -25758.784    364.90598    58.095073    92345.414   0.97182764    458.75217 
   73000       855000   -25870.736    368.34331    3292.7864   -29163.522   -26544.731    368.34331   -500.45545    92345.414   0.97182764    461.37104 
   73500       860000   -25965.016    368.37021    3293.0268   -29258.043   -26452.748    368.37021   -362.15132    92345.414   0.97182764     463.9633 
   74000       865000   -25851.365    367.03491      3281.09   -29132.455   -26214.341    367.03491   -269.51709    92345.414   0.97182764    466.59384 
   74500       870000   -25876.861    369.34736     3301.762   -29178.623   -26637.808    369.34736   -565.01931    92345.414   0.97182764    469.22056 
   75000       875000   -25853.381    370.14807    3308.9199     -29162.3   -26076.632    370.14807   -165.76897    92345.414   0.97182764    472.20276 
   75500       880000   -25964.158    365.26245    3265.2451   -29229.403   -26316.559    365.26245   -261.66502    92345.414   0.97182764    475.07194 
   76000       885000   -25981.648    360.99364    3227.0843   -29208.732   -26154.639    360.99364   -128.44954    92345.414   0.97182764    477.69605 
   76500       890000   -26079.989    357.74383    3198.0328   -29278.022   -26433.107    357.74383   -262.19738    92345.414   0.97182764    480.31745 
   77000       895000   -25879.897    365.57856     3268.071   -29147.968   -26100.532    365.57856   -163.82667    92345.414   0.97182764    482.99591 
   77500       900000   -25925.559    360.75191    3224.9234   -29150.483   -25796.617    360.75191    95.742442    92345.414   0.97182764    485.62636 
   78000       905000   -25936.242    367.47596    3285.0327   -29221.274   -26253.583    367.47596   -235.63234    92345.414   0.97182764    488.25491 
   78500       910000   -26042.224     361.8276    3234.5395   -29276.763   -26728.683     361.8276   -509.71007    92345.414   0.97182764    490.89332 
   79000       915000   -26042.176    354.15215    3165.9252   -29208.101    -26717.75    354.15215   -501.62744    92345.414   0.97182764    493.50415 
   79500       920000   -26065.499    357.18909    3193.0738   -29258.573   -26690.172    357.18909   -463.83287    92345.414   0.97182764    496.09127 
   80000       925000   -25947.662    367.85581    3288.4284   -29236.091   -26478.797    367.85581   -394.37905    92345.414   0.97182764    498.71634 
   80500       930000   -26072.603    361.46718    3231.3176   -29303.921   -26242.889    361.46718    -126.4412    92345.414   0.97182764    501.30692 
   81000       935000   -26022.399    365.73375    3269.4583   -29291.857   -26734.499    365.73375   -528.74977    92345.414   0.97182764    503.91996 
   81500       940000   -26025.752    360.40337    3221.8077    -29247.56   -26622.998    360.40337   -443.46747    92345.414   0.97182764     506.7632 
   82000       945000   -25964.841    365.78553    3269.9212   -29234.762   -26232.527    365.78553   -198.76263    92345.414   0.97182764     509.4333 
   82500       950000   -25934.953    367.83418     3288.235   -29223.188   -26068.155    367.83418   -98.905199    92345.414   0.97182764    512.07763 
   83000       955000   -25998.809     362.2445    3238.2664   -29237.076   -26092.153     362.2445   -69.310028    92345.414   0.97182764    514.67321 
   83500       960000   -26102.592    361.71088    3233.4961   -29336.088   -26669.301    361.71088   -420.79335    92345.414   0.97182764    517.25709 
   84000       965000   -26077.387    356.39588     3185.983    -29263.37   -27183.806    356.39588   -821.53893    92345.414   0.97182764    519.88816 
   84500       970000   -26038.466    358.13782    3201.5549   -29240.021   -26740.683    358.13782   -521.41027    92345.414   0.97182764    522.56701 
   85000       975000   -25844.645    373.44022    3338.3499   -29182.995   -26634.345    373.44022   -586.36896    92345.414   0.97182764    525.17043 
   85500       980000   -26137.517    357.78711    3198.4197   -29335.937   -27032.143    357.78711   -664.27813    92345.414   0.97182764    527.73434 
   86000       985000   -26027.069    362.52673    3240.7893   -29267.858   -26808.895    362.52673   -580.52216    92345.414   0.97182764    530.44595 
   86500       990000   -26109.282    355.67397    3179.5294   -29288.811   -26328.525    355.67397   -162.79248    92345.414   0.97182764    533.01482 
   87000       995000   -26153.984    355.37543    3176.8606   -29330.845   -26801.541    355.37543   -480.82461    92345.414   0.97182764     535.8543 
   87500      1000000   -26089.943    361.15049    3228.4865    -29318.43   -27382.458    361.15049   -959.71964    92345.414   0.97182764    538.74359 
   88000      1005000   -26106.834    359.68728    3215.4062    -29322.24   -26171.322    359.68728    -47.88435    92345.414   0.97182764    541.46713 
   88500      1010000   -26264.664    345.14805    3085.4335   -29350.097   -26705.866    345.14805   -327.60194    92345.414   0.97182764    544.06307 
   89000      1015000   -26204.577    355.59789    3178.8493   -29383.426   -26874.599    355.59789   -497.50585    92345.414   0.97182764    546.66834 
   89500      1020000   -26065.218    356.12121    3183.5275   -29248.745   -26416.021    356.12121   -260.47848    92345.414   0.97182764    549.25424 
   90000      1025000   -26113.765    352.91385    3154.8555    -29268.62   -26588.711    352.91385   -352.65747    92345.414   0.97182764    551.90822 
   90500      1030000   -26108.854     360.8911    3226.1677   -29335.022   -26935.023     360.8911   -613.44746    92345.414   0.97182764    554.52878 
   91000      1035000   -26088.397     359.6651     3215.208   -29303.605   -26691.454     359.6651   -447.78288    92345.414   0.97182764    557.13909 
   91500      1040000   -26170.538    351.11767    3138.7986   -29309.337   -26361.108    351.11767   -141.50197    92345.414   0.97182764    559.70026 
   92000      1045000   -26212.338    350.33217    3131.7767   -29344.115   -27140.026    350.33217   -688.82788    92345.414   0.97182764    562.29443 
   92500      1050000   -26219.072    347.56885    3107.0741   -29326.146   -27562.035    347.56885   -997.17854    92345.414   0.97182764    564.95732 
   93000      1055000   -26138.513    351.35013    3140.8767    -29279.39   -26554.105    351.35013   -308.58585    92345.414   0.97182764    567.89415 
   93500      1060000   -26127.853    366.87139    3279.6282   -29407.481   -27177.049    366.87139   -779.05008    92345.414   0.97182764    570.45261 
   94000      1065000   -26174.126    354.19057    3166.2686   -29340.395   -27318.988    354.19057    -850.0844    92345.414   0.97182764    573.10961 
   94500      1070000   -26248.052    355.42127    3177.2704   -29425.322   -26891.488    355.42127   -477.76536    92345.414   0.97182764     575.6328 
   95000      1075000   -26314.203    345.62343    3089.6832   -29403.886   -27159.925    345.62343   -627.96647    92345.414   0.97182764    578.17271 
   95500      1080000   -26342.376    341.39554    3051.8881   -29394.264   -27155.815    341.39554   -603.99511    92345.414   0.97182764    580.70395 
   96000      1085000   -26282.663    349.45018    3123.8921   -29406.555   -26132.823    349.45018      111.259    92345.414   0.97182764    583.72961 
   96500      1090000   -26172.952    345.51497    3088.7136   -29261.665     -26804.1    345.51497   -468.64119    92345.414   0.97182764    587.16997 
   97000      1095000   -26161.406    355.31616    3176.3308   -29337.737   -26467.382    355.31616   -227.19385    92345.414   0.97182764    590.66098 
   97500      1100000   -26307.129    349.79879    3127.0085   -29434.137   -26822.026    349.79879   -382.32237    92345.414   0.97182764    593.74875 
   98000      1105000   -26300.034    350.63126    3134.4504   -29434.484   -27461.259    350.63126   -862.23461    92345.414   0.97182764    597.06457 
   98500      1110000   -26230.617    355.62262    3179.0704   -29409.688   -27062.209    355.62262   -617.47443    92345.414   0.97182764    600.26426 
   99000      1115000   -26188.202    357.72102    3197.8289   -29386.031   -26713.336    357.72102   -389.92331    92345.414   0.97182764    603.71553 
   99500      1120000   -26300.622    346.06223    3093.6058   -29394.227   -27136.347    346.06223   -620.54357    92345.414   0.97182764    607.29788 
  100000      1125000   -26320.374    348.31401    3113.7354   -29434.109   -27020.104    348.31401   -519.56462    92345.414   0.97182764    610.89452 
  100500      1130000   -26370.125    345.21529    3086.0346   -29456.159   -27042.929    345.21529   -499.57157    92345.414   0.97182764    614.13525 
  101000      1135000   -26277.945    354.08379    3165.3141   -29443.259    -26414.91    354.08379   -101.69913    92345.414   0.97182764     617.4871 
  101500      1140000     -26343.5    351.70928    3144.0873   -29487.587   -27836.771    351.70928   -1108.7848    92345.414   0.97182764    620.37419 
  102000      1145000   -26392.057    337.69421    3018.8003   -29410.858   -27289.064    337.69421   -666.04669    92345.414   0.97182764    624.36457 
  102500      1150000   -26413.193    344.78031    3082.1461   -29495.339   -26719.868    344.78031   -227.71255    92345.414   0.97182764    628.34303 
  103000      1155000   -26359.599    347.89404    3109.9812    -29469.58   -26990.056    347.89404    -468.1273    92345.414   0.97182764    631.13301 
  103500      1160000   -26276.722     352.2174    3148.6296   -29425.351   -27132.366     352.2174   -635.33371    92345.414   0.97182764    633.65415 
  104000      1165000   -26451.972    340.94346    3047.8468   -29499.819   -27743.197    340.94346   -958.76127    92345.414   0.97182764    636.22393 
  104500      1170000   -26413.421    342.22474    3059.3007   -29472.721   -27414.724    342.22474   -743.48908    92345.414   0.97182764     638.7765 
  105000      1175000   -26394.578    342.86611    3065.0342   -29459.612   -27481.325    342.86611   -806.93256    92345.414   0.97182764    641.45032 
  105500      1180000   -26355.539    348.53838    3115.7412    -29471.28   -27541.957    348.53838   -880.94058    92345.414   0.97182764    644.01126 
  106000      1185000   -26325.164    344.14253    3076.4448   -29401.609   -26770.975    344.14253   -331.02397    92345.414   0.97182764    646.57126 
  106500      1190000   -26367.273    347.86391    3109.7118   -29476.985   -27898.209    347.86391   -1136.7523    92345.414   0.97182764     649.0944 
  107000      1195000    -26494.56     332.2518    2970.1481   -29464.708   -27263.039     332.2518    -570.6117    92345.414   0.97182764    651.63285 
  107500      1200000   -26414.438    341.51446    3052.9512    -29467.39   -26688.587    341.51446   -203.56122    92345.414   0.97182764    654.31019 
  108000      1205000   -26415.889    338.64394    3027.2904   -29443.179   -27271.566    338.64394   -635.35856    92345.414   0.97182764    656.86723 
  108500      1210000   -26566.557    330.55914    2955.0167   -29521.573   -27797.363    330.55914   -913.89972    92345.414   0.97182764    659.39824 
  109000      1215000   -26476.282    342.76273    3064.1101   -29540.392    -27606.62    342.76273   -839.30008    92345.414   0.97182764    661.98149 
  109500      1220000   -26323.732    347.12182    3103.0779    -29426.81   -27046.184    347.12182   -536.43554    92345.414   0.97182764     664.5182 
  110000      1225000    -26570.75    334.14377    2987.0613   -29557.811   -28278.079    334.14377   -1267.7281    92345.414   0.97182764    667.09431 
  110500      1230000   -26560.172    335.32405    2997.6123   -29557.785   -27001.337    335.32405   -327.57395    92345.414   0.97182764      669.656 
  111000      1235000   -26431.055    341.37944    3051.7442   -29482.799   -27646.582    341.37944   -902.55404    92345.414   0.97182764    672.27358 
  111500      1240000   -26615.392    325.40914    2908.9785   -29524.371   -27150.863    325.40914   -397.59861    92345.414   0.97182764    674.83016 
  112000      1245000    -26543.45    337.09927    3013.4819   -29556.932   -27621.746    337.09927   -800.65702    92345.414   0.97182764    677.36706 
  112500      1250000   -26545.597    339.70279    3036.7558   -29582.353   -26819.953    339.70279   -203.71537    92345.414   0.97182764    679.89452 
  113000      1255000   -26494.768    336.92894    3011.9592   -29506.727   -27685.135    336.92894   -883.87249    92345.414   0.97182764    682.42913 
  113500      1260000   -26530.552    337.82121    3019.9356   -29550.487   -27593.188    337.82121   -789.02997    92345.414   0.97182764    684.97686 
  114000      1265000   -26547.195    334.92561    2994.0505   -29541.246   -26943.378    334.92561   -294.17387    92345.414   0.97182764    687.66368 
  114500      1270000   -26623.462    326.86716    2922.0124   -29545.475   -27569.166    326.86716    -702.2053    92345.414   0.97182764    690.23383 
  115000      1275000   -26606.199    329.99384    2949.9632   -29556.162    -27362.73    329.99384    -561.7402    92345.414   0.97182764    692.84039 
  115500      1280000   -26615.455     331.6197    2964.4975   -29579.952   -27475.378     331.6197    -638.5107    92345.414   0.97182764    695.54396 
  116000      1285000   -26552.714    338.88421    3029.4382   -29582.152   -27249.766    338.88421   -517.57605    92345.414   0.97182764    698.32784 
  116500      1290000   -26589.436    336.18576    3005.3155   -29594.751   -27556.964    336.18576   -718.41049    92345.414   0.97182764    700.86699 
  117000      1295000   -26546.023    330.13665    2951.2399   -29497.263   -26996.516    330.13665   -334.50089    92345.414   0.97182764    703.38701 
  117500      1300000   -26612.902    333.36128    2980.0663   -29592.968   -27514.877    333.36128   -669.73527    92345.414   0.97182764    705.90044 
  118000      1305000   -26670.387    334.10992    2986.7587   -29657.145   -27700.575    334.10992    -764.9369    92345.414   0.97182764    708.43961 
  118500      1310000   -26678.338    329.46237    2945.2121    -29623.55   -27910.824    329.46237   -915.14688    92345.414   0.97182764    710.95596 
  119000      1315000   -26588.616    337.21697     3014.534    -29603.15   -27202.506    337.21697   -455.82639    92345.414   0.97182764    713.56856 
  119500      1320000   -26709.708    326.32538    2917.1692   -29626.877   -28121.551    326.32538   -1048.3238    92345.414   0.97182764     716.1208 
  120000      1325000   -26753.949    324.25589    2898.6691   -29652.618   -27293.919    324.25589   -400.93902    92345.414   0.97182764     718.6323 
  120500      1330000   -26779.109    320.91553    2868.8081   -29647.917   -27696.249    320.91553    -680.9957    92345.414   0.97182764    721.18066 
  121000      1335000   -26574.413    320.33439     2863.613   -29438.026   -27489.767    320.33439   -679.66943    92345.414   0.97182764    723.71244 
  121500      1340000   -26735.498    326.80997    2921.5012   -29656.999   -27903.876    326.80997   -867.54489    92345.414   0.97182764    726.24621 
  122000      1345000    -26676.71    337.91939    3020.8133   -29697.523   -28344.074    337.91939   -1238.0527    92345.414   0.97182764     728.7618 
  122500      1350000   -26750.898    326.16257    2915.7138   -29666.612   -27938.784    326.16257   -882.03019    92345.414   0.97182764    731.26566 
  123000      1355000   -26860.984    321.58556    2874.7978   -29735.782    -28387.59    321.58556    -1133.537    92345.414   0.97182764    733.78796 
  123500      1360000   -26765.909     324.6355    2902.0626   -29667.971   -28259.117     324.6355   -1108.7384    92345.414   0.97182764    736.26708 
  124000      1365000   -26811.966    319.08675    2852.4598   -29664.426   -28302.388    319.08675   -1106.6697    92345.414   0.97182764    738.79773 
  124500      1370000   -26812.016    326.68912    2920.4209   -29732.436   -28208.978    326.68912   -1037.2744    92345.414   0.97182764    741.34599 
  125000      1375000   -26763.596    320.54927    2865.5339    -29629.13   -27857.684    320.54927    -812.3835    92345.414   0.97182764    743.86874 
  125500      1380000   -26900.377    314.90355    2815.0643   -29715.441   -28022.593    314.90355   -833.26883    92345.414   0.97182764    746.52292 
  126000      1385000   -26866.749    326.65002    2920.0713   -29786.821   -28669.591    326.65002    -1338.648    92345.414   0.97182764    749.05324 
  126500      1390000   -26768.589    332.55978    2972.9013    -29741.49   -27773.313    332.55978   -746.02863    92345.414   0.97182764    751.57438 
  127000      1395000   -26855.244    318.23315    2844.8291   -29700.073   -28258.449    318.23315   -1041.9095    92345.414   0.97182764    754.07649 
  127500      1400000   -26768.159    324.77528    2903.3121   -29671.471     -28408.5    324.77528    -1217.988    92345.414   0.97182764    756.56632 
  128000      1405000   -26772.431    322.35492    2881.6755   -29654.106   -27935.941    322.35492   -863.93115    92345.414   0.97182764    759.07074 
  128500      1410000   -26856.564    317.02634    2834.0409   -29690.605   -28035.265    317.02634   -875.21019    92345.414   0.97182764    761.58674 
  129000      1415000   -26937.853    319.48876    2856.0536   -29793.906   -28152.603    319.48876    -901.9775    92345.414   0.97182764    764.09797 
  129500      1420000   -26899.857    315.06946    2816.5475   -29716.404   -28223.016    315.06946    -982.4738    92345.414   0.97182764    766.60286 
  130000      1425000   -26763.129    325.90103    2913.3757   -29676.505   -27935.232    325.90103   -870.31094    92345.414   0.97182764    769.10358 
  130500      1430000   -26821.378    324.85082    2903.9875   -29725.366   -27678.685    324.85082   -636.56793    92345.414   0.97182764    771.60564 
  131000      1435000   -26897.253     324.0955    2897.2353   -29794.489   -27828.282     324.0955   -691.30876    92345.414   0.97182764     774.2386 
  131500      1440000   -27027.232    317.72202    2840.2599   -29867.492    -28143.26    317.72202   -828.67463    92345.414   0.97182764    776.72296 
  132000      1445000   -26907.605     318.3171    2845.5795   -29753.185   -28133.558     318.3171   -910.29583    92345.414   0.97182764    779.25358 
  132500      1450000   -26893.934    324.50495    2900.8956   -29794.829   -28547.256    324.50495   -1227.6268    92345.414   0.97182764    781.77026 
  133000      1455000   -26845.606    323.15013    2888.7842    -29734.39   -28407.759    323.15013   -1159.9314    92345.414   0.97182764    784.26934 
  133500      1460000   -26960.012    318.35122    2845.8846   -29805.897   -27935.125    318.35122   -724.04154    92345.414   0.97182764    786.77378 
  134000      1465000   -26984.374    315.12362    2817.0317   -29801.406   -27682.932    315.12362   -518.69392    92345.414   0.97182764    789.29511 
  134500      1470000   -26914.674    321.06192    2870.1168    -29784.79   -28095.176    321.06192   -876.54817    92345.414   0.97182764    791.77359 
  135000      1475000   -26946.161    311.69299    2786.3637   -29732.525   -28248.131    311.69299   -966.74021    92345.414   0.97182764    794.26325 
  135500      1480000    -27013.37    316.71462    2831.2543   -29844.625   -28603.798    316.71462   -1180.9259    92345.414   0.97182764    796.74785 
  136000      1485000   -27034.009    309.82138    2769.6325   -29803.642   -28246.701    309.82138   -900.44934    92345.414   0.97182764    799.23843 
  136500      1490000   -26861.812    321.84526    2877.1194   -29738.932   -28331.472    321.84526   -1091.2536    92345.414   0.97182764    801.71444 
  137000      1495000   -26980.091    314.43934    2810.9145   -29791.006   -28391.004    314.43934   -1047.6323    92345.414   0.97182764    804.20651 
  137500      1500000    -27026.97    318.31629    2845.5723   -29872.543   -28514.543    318.31629   -1104.5538    92345.414   0.97182764    806.69922 
  138000      1505000   -26958.934    320.75661    2867.3875   -29826.321   -28306.151    320.75661    -1000.337    92345.414   0.97182764    809.18507 
  138500      1510000   -27034.795    314.55089    2811.9118   -29846.707   -28280.795    314.55089   -925.18095    92345.414   0.97182764    811.71572 
  139000      1515000   -27180.091    309.15078    2763.6377   -29943.729   -28560.091    309.15078   -1024.6788    92345.414   0.97182764    814.20434 
  139500      1520000   -27029.149    313.98177    2806.8241   -29835.973   -28307.378    313.98177   -949.11175    92345.414   0.97182764    816.66405 
  140000      1525000   -27104.341    312.06496    2789.6889    -29894.03   -28634.861    312.06496   -1136.4438    92345.414   0.97182764    819.17815 
  140500      1530000   -27110.022    310.14024     2772.483   -29882.505   -28719.993    310.14024   -1195.4371    92345.414   0.97182764    821.72895 
  141000      1535000   -26949.075    310.95292    2779.7478   -29728.823   -28802.712    310.95292   -1376.3639    92345.414   0.97182764    824.23098 
  141500      1540000   -27200.191    304.90566    2725.6887   -29925.879   -28400.137    304.90566   -890.98529    92345.414   0.97182764    826.71954 
  142000      1545000   -27233.531     306.4709    2739.6811   -29973.212   -28917.621     306.4709   -1250.4724    92345.414   0.97182764     829.1878 
  142500      1550000   -27116.676    311.58087    2785.3614   -29902.037   -28619.799    311.58087   -1116.1009    92345.414   0.97182764    831.64129 
  143000      1555000   -27035.286    305.41201    2730.2152   -29765.502   -28074.173    305.41201   -771.39489    92345.414   0.97182764    834.25432 
  143500      1560000   -27203.327    300.36958    2685.1386   -29888.466   -28731.617    300.36958   -1134.7872    92345.414   0.97182764    836.72307 
  144000      1565000   -27185.935    316.48635    2829.2137   -30015.148   -28759.527    316.48635   -1168.4255    92345.414   0.97182764     839.1856 
  144500      1570000   -27069.664    307.83195    2751.8481   -29821.513   -28756.656    307.83195    -1252.627    92345.414   0.97182764    841.70085 
  145000      1575000   -27112.036    305.52821    2731.2539    -29843.29   -28958.874    305.52821   -1371.3161    92345.414   0.97182764    844.20442 
  145500      1580000   -27115.783    312.86022    2796.7981   -29912.581   -28854.651    312.86022   -1291.1467    92345.414   0.97182764     846.6883 
  146000      1585000   -27222.762    299.49047    2677.2799   -29900.042    -28666.75    299.49047   -1072.1913    92345.414   0.97182764    849.18529 
  146500      1590000   -27208.163    304.48291    2721.9095   -29930.073   -29014.036    304.48291   -1340.8985    92345.414   0.97182764    851.65218 
  147000      1595000   -27317.701    301.07267    2691.4239   -30009.125   -28572.116    301.07267   -931.42973    92345.414   0.97182764    854.13453 
  147500      1600000   -27230.836    306.40862    2739.1243   -29969.961   -28974.333    306.40862   -1294.5831    92345.414   0.97182764    856.58644 
  148000      1605000   -27221.179    303.53184    2713.4075   -29934.586     -28731.5    303.53184   -1121.4457    92345.414   0.97182764    859.09099 
  148500      1610000   -27266.346    303.42785    2712.4779   -29978.824   -29527.924    303.42785   -1679.2688    92345.414   0.97182764    861.55653 
  149000      1615000   -27213.229    303.50181    2713.1391   -29926.368   -28986.295    303.50181   -1316.5387    92345.414   0.97182764    864.10378 
  149500      1620000   -27296.639    302.95252    2708.2287   -30004.868   -29205.562    302.95252   -1417.4152    92345.414   0.97182764    866.55927 
  150000      1625000       -27175    310.01449    2771.3588   -29946.359   -27952.955    310.01449   -577.64786    92345.414   0.97182764    869.07997 
  150500      1630000   -27276.325    302.44372    2703.6803   -29980.005   -28641.014    302.44372    -1013.311    92345.414   0.97182764    871.57323 
  151000      1635000   -27317.123    299.73076    2679.4279   -29996.551   -29443.181    299.73076   -1578.6427    92345.414   0.97182764    874.03822 
  151500      1640000   -27330.559    298.49852    2668.4124   -29998.971   -28538.358    298.49852   -896.81621    92345.414   0.97182764    876.49689 
  152000      1645000    -27321.61    304.09366    2718.4299    -30040.04    -28657.14    304.09366   -991.65911    92345.414   0.97182764     878.9687 
  152500      1650000   -27277.166     300.3566    2685.0226   -29962.189   -28961.386     300.3566   -1250.5688    92345.414   0.97182764    881.42231 
  153000      1655000   -27352.449    300.14035    2683.0894   -30035.538   -29106.545    300.14035   -1302.4534    92345.414   0.97182764    883.89078 
  153500      1660000   -27282.285    306.57797    2740.6382   -30022.923    -28803.11    306.57797   -1129.2445    92345.414   0.97182764    886.34402 
  154000      1665000   -27247.868    309.23191     2764.363   -30012.231   -28699.247    309.23191   -1077.6795    92345.414   0.97182764    888.80213 
  154500      1670000   -27402.247    296.57589    2651.2252   -30053.472   -29342.088    296.57589   -1440.3725    92345.414   0.97182764      891.291 
  155000      1675000   -27433.072    298.53098    2668.7026   -30101.775    -28609.49    298.53098   -873.51467    92345.414   0.97182764    893.98516 
  155500      1680000   -27363.332    299.47851     2677.173   -30040.505   -28513.355    299.47851   -853.91599    92345.414   0.97182764     896.4904 
  156000      1685000   -27425.576    298.38661    2667.4119   -30092.988   -29050.166    298.38661   -1206.2926    92345.414   0.97182764    898.93697 
  156500      1690000   -27447.926    298.08718    2664.7352   -30112.661   -28733.277    298.08718   -954.40023    92345.414   0.97182764    901.39106 
  157000      1695000   -27600.274    294.70667    2634.5154   -30234.789   -29527.433    294.70667    -1430.956    92345.414   0.97182764    903.85742 
  157500      1700000   -27407.241    297.29607    2657.6631   -30064.904   -28622.947    297.29607   -902.68729    92345.414   0.97182764    906.30799 
  158000      1705000   -27429.297    295.23722    2639.2581   -30068.555   -29063.939    295.23722   -1213.7557    92345.414   0.97182764     908.7621 
  158500      1710000   -27565.873    293.14289     2620.536   -30186.409    -28934.68    293.14289   -1016.3675    92345.414   0.97182764    911.18072 
  159000      1715000   -27392.117    298.38301    2667.3798   -30059.497   -28852.174    298.38301   -1084.1231    92345.414   0.97182764    913.64349 
  159500      1720000   -27466.615    298.49146    2668.3493   -30134.964   -29652.567    298.49146   -1623.1159    92345.414   0.97182764    916.15611 
  160000      1725000   -27394.371     298.9268     2672.241   -30066.612   -28617.916     298.9268   -908.50774    92345.414   0.97182764    918.62983 
  160500      1730000   -27515.138    287.85996    2573.3095   -30088.448   -29030.734    287.85996    -1125.362    92345.414   0.97182764    921.30823 
  161000      1735000   -27644.759    283.11284    2530.8729   -30175.632   -29235.046    283.11284   -1180.8216    92345.414   0.97182764    923.81822 
  161500      1740000   -27556.157    294.70845    2634.5313   -30190.689   -29525.445    294.70845   -1462.2378    92345.414   0.97182764    926.25521 
  162000      1745000   -27488.527    299.15181    2674.2525    -30162.78   -28869.173    299.15181   -1025.1582    92345.414   0.97182764    928.67226 
  162500      1750000     -27565.1    286.34347    2559.7529   -30124.853   -28912.868    286.34347   -1000.7464    92345.414   0.97182764    931.16946 
  163000      1755000   -27589.627    286.48974    2561.0605   -30150.688   -29379.841    286.48974   -1329.2714    92345.414   0.97182764    933.62507 
  163500      1760000   -27635.587    288.69374    2580.7631    -30216.35   -28793.188    288.69374   -859.54354    92345.414   0.97182764    936.06466 
  164000      1765000   -27550.212    295.41844    2640.8782    -30191.09   -29076.921    295.41844   -1133.6138    92345.414   0.97182764    938.49294 
  164500      1770000   -27588.137    291.09703    2602.2472   -30190.384   -28867.386    291.09703   -949.86947    92345.414   0.97182764    940.91948 
  165000      1775000   -27529.386    291.74708    2608.0583   -30137.444   -28914.636    291.74708   -1028.5773    92345.414   0.97182764    943.34023 
  165500      1780000   -27576.052    289.11633    2584.5408   -30160.592   -28609.228    289.11633   -767.15496    92345.414   0.97182764    945.74935 
  166000      1785000   -27681.174    287.29944    2568.2988   -30249.473   -29257.294    287.29944   -1170.3022    92345.414   0.97182764      948.195 
  166500      1790000    -27610.11    289.78466    2590.5153   -30200.626   -29087.415    289.78466   -1096.9296    92345.414   0.97182764    950.58476 
  167000      1795000   -27631.946    284.94876     2547.285   -30179.231   -29078.528    284.94876   -1074.1174    92345.414   0.97182764    952.99505 
  167500      1800000    -27693.89    291.37645     2604.745   -30298.635   -30231.218    291.37645   -1884.0198    92345.414   0.97182764    955.52586 
  168000      1805000   -27685.279    289.16332    2584.9608    -30270.24   -29101.778    289.16332   -1051.7801    92345.414   0.97182764    958.00666 
  168500      1810000   -27804.979    276.81615    2474.5839   -30279.563   -29494.471    276.81615   -1254.4831    92345.414   0.97182764    960.40659 
  169000      1815000   -27668.371     289.0047    2583.5429   -30251.913   -29149.398     289.0047   -1099.6944    92345.414   0.97182764    962.86526 
  169500      1820000   -27670.301    286.90876    2564.8063   -30235.107   -29188.411    286.90876   -1127.2293    92345.414   0.97182764    965.27626 
  170000      1825000   -27714.712    283.68931    2536.0263   -30250.738   -29927.188    283.68931   -1642.8103    92345.414   0.97182764    967.67666 
  170500      1830000   -27635.778    285.01227    2547.8527   -30183.631   -29797.585    285.01227   -1605.1869    92345.414   0.97182764    970.09905 
  171000      1835000   -27821.355    282.60638    2526.3454     -30347.7   -29523.279    282.60638   -1263.7147    92345.414   0.97182764    972.50696 
  171500      1840000   -27725.111    283.64268    2535.6093    -30260.72   -29491.861    283.64268   -1311.8489    92345.414   0.97182764    974.90523 
  172000      1845000     -27884.6    275.00662    2458.4077   -30343.008   -29415.871    275.00662   -1137.0011    92345.414   0.97182764     977.3115 
  172500      1850000   -27781.911    278.73969    2491.7793    -30273.69   -29305.326    278.73969   -1131.1679    92345.414   0.97182764    979.70164 
  173000      1855000    -27757.85    285.72887    2554.2588   -30312.109   -29919.869    285.72887   -1605.3446    92345.414   0.97182764    982.08967 
  173500      1860000   -27803.209    279.89759    2502.1303   -30305.339   -29437.107    279.89759   -1213.2035    92345.414   0.97182764    984.50456 
  174000      1865000   -27744.087    276.95459    2475.8215   -30219.909   -29588.525    276.95459   -1369.5341    92345.414   0.97182764    986.90112 
  174500      1870000   -27981.891    276.69823    2473.5298   -30455.421   -30302.943    276.69823   -1723.4303    92345.414   0.97182764    989.25943 
  175000      1875000   -27809.519    280.66935    2509.0294   -30318.548   -29651.449    280.66935   -1367.6715    92345.414   0.97182764    991.66162 
  175500      1880000   -27934.785    278.67306    2491.1837   -30425.969   -29270.026    278.67306   -991.44477    92345.414   0.97182764    994.01286 
  176000      1885000   -27785.548    283.39102    2533.3597   -30318.908   -29518.649    283.39102   -1286.8633    92345.414   0.97182764    996.42335 
  176500      1890000   -27853.771    280.59409    2508.3566   -30362.128   -29788.714    280.59409   -1436.7359    92345.414   0.97182764    998.79209 
  177000      1895000   -27903.916    280.63729    2508.7428   -30412.659    -29551.99    280.63729   -1223.7295    92345.414   0.97182764    1001.1761 
  177500      1900000   -27813.513    283.42464    2533.6602   -30347.173    -29377.03    283.42464   -1160.9448    92345.414   0.97182764    1003.5372 
  178000      1905000   -27923.485    279.60262    2499.4934   -30422.979   -29173.226    279.60262   -927.95871    92345.414   0.97182764    1005.9293 
  178500      1910000   -27935.469    278.38708    2488.6272   -30424.096   -30047.721    278.38708   -1568.3919    92345.414   0.97182764    1008.2886 
  179000      1915000   -27827.139    276.67472    2473.3196   -30300.459   -29578.817    276.67472   -1300.6576    92345.414   0.97182764    1010.6642 
  179500      1920000   -27856.116    275.02269    2458.5514   -30314.668   -29449.246    275.02269   -1182.9324    92345.414   0.97182764    1013.0345 
  180000      1925000   -27993.435    279.85039    2501.7084   -30495.143   -29701.948    279.85039   -1268.6072    92345.414   0.97182764    1015.5413 
  180500      1930000   -27949.879    274.91389    2457.5788   -30407.458   -29739.934    274.91389   -1329.1536    92345.414   0.97182764    1017.8947 
  181000      1935000   -28081.171    267.65851    2392.7197   -30473.891   -30023.521    267.65851   -1442.2356    92345.414   0.97182764    1020.2705 
  181500      1940000   -27903.474    274.27896    2451.9029   -30355.377    -29451.63    274.27896   -1149.5387    92345.414   0.97182764    1022.6574 
  182000      1945000   -27959.511    276.30594     2470.023   -30429.534   -29363.822    276.30594   -1042.7305    92345.414   0.97182764    1025.0789 
  182500      1950000   -27959.063    275.68431     2464.466   -30423.529   -29429.576    275.68431   -1091.8867    92345.414   0.97182764    1027.4347 
  183000      1955000   -28134.193    274.45585    2453.4841   -30587.677   -29592.018    274.45585   -1082.4652    92345.414   0.97182764    1029.7935 
  183500      1960000   -27974.895    274.42406       2453.2   -30428.095    -29995.97    274.42406   -1500.6905    92345.414   0.97182764    1032.1923 
  184000      1965000   -28200.091      269.334    2407.6976   -30607.789   -30064.314      269.334   -1384.2251    92345.414   0.97182764    1034.5623 
  184500      1970000   -28066.672    270.13801    2414.8851   -30481.557   -30125.493    270.13801   -1528.7181    92345.414   0.97182764    1036.9131 
  185000      1975000   -28044.124    273.92061    2448.6994   -30492.824   -29715.655    273.92061   -1241.1464    92345.414   0.97182764    1039.2894 
  185500      1980000   -27998.502    275.25437    2460.6225   -30459.125   -30266.585    275.25437   -1684.0987    92345.414   0.97182764    1041.6533 
  186000      1985000   -28029.945    276.06229    2467.8449    -30497.79   -29850.923    276.06229   -1352.1145    92345.414   0.97182764    1044.0658 
  186500      1990000   -28158.032    265.96001    2377.5361   -30535.568   -29697.537    265.96001   -1143.1146    92345.414   0.97182764    1046.4091 
  187000      1995000   -28028.561    274.52292    2454.0837   -30482.645   -29804.609    274.52292   -1318.7528    92345.414   0.97182764    1048.7804 
  187500      2000000   -28275.027    263.94129    2359.4898   -30634.517   -30259.647    263.94129   -1473.6223    92345.414   0.97182764    1051.1551 
  188000      2005000   -28047.944    270.51657    2418.2691   -30466.213   -29715.613    270.51657   -1238.2795    92345.414   0.97182764    1053.5088 
  188500      2010000   -28091.887     270.6294    2419.2778   -30511.165   -30236.056     270.6294   -1592.0905    92345.414   0.97182764    1055.8425 
  189000      2015000   -28116.826    264.10347    2360.9396   -30477.765   -29857.493    264.10347    -1292.482    92345.414   0.97182764    1058.2183 
  189500      2020000    -28242.54    265.68146    2375.0459   -30617.586   -30200.764    265.68146   -1454.0221    92345.414   0.97182764    1060.5783 
  190000      2025000   -28161.158    274.10139    2450.3155   -30611.473   -30065.536    274.10139   -1414.0411    92345.414   0.97182764    1062.9136 
  190500      2030000    -28152.05    268.63215    2401.4235   -30553.474   -29627.143    268.63215   -1095.2878    92345.414   0.97182764    1065.2743 
  191000      2035000   -28248.978    263.49476    2355.4981   -30604.476   -29918.584    263.49476   -1239.7173    92345.414   0.97182764      1067.61 
  191500      2040000   -28248.005    262.14423     2343.425   -30591.431   -29725.071    262.14423   -1096.7526    92345.414   0.97182764    1069.9531 
  192000      2045000   -28143.437     270.7137    2420.0314   -30563.468   -29562.592     270.7137   -1053.7524    92345.414   0.97182764     1072.316 
  192500      2050000   -28251.057    266.41446    2381.5985   -30632.655   -30196.252    266.41446   -1444.3486    92345.414   0.97182764     1074.795 
  193000      2055000   -28229.762    269.86058     2412.405   -30642.167   -30264.784    269.86058   -1511.0469    92345.414   0.97182764    1077.1368 
  193500      2060000   -28144.174    266.66486     2383.837   -30528.011   -29926.053    266.66486   -1323.0822    92345.414   0.97182764    1079.4814 
  194000      2065000   -28254.225    265.18842    2370.6385   -30624.863   -30186.185    265.18842   -1434.5211    92345.414   0.97182764    1081.8488 
  194500      2070000   -28246.654    264.34296    2363.0805   -30609.734   -29759.564    264.34296   -1123.3677    92345.414   0.97182764     1084.219 
  195000      2075000   -28342.514    263.20761    2352.9311   -30695.445   -30540.793    263.20761   -1632.2681    92345.414   0.97182764    1086.5628 
  195500      2080000   -28332.977    263.55814    2356.0646   -30689.041   -30038.259    263.55814    -1266.208    92345.414   0.97182764    1088.8836 
  196000      2085000   -28198.551    264.97522    2368.7326   -30567.284   -29459.081    264.97522   -935.97019    92345.414   0.97182764     1091.275 
  196500      2090000   -28366.151    262.27044    2344.5533   -30710.704   -30370.871    262.27044   -1488.5471    92345.414   0.97182764    1093.8539 
  197000      2095000   -28346.179    258.83604    2313.8516   -30660.031   -30374.845    258.83604   -1506.3273    92345.414   0.97182764    1096.1791 
  197500      2100000   -28351.577    256.97083    2297.1777   -30648.754   -29937.587    256.97083   -1177.6462    92345.414   0.97182764    1098.4977 
  198000      2105000    -28364.65    255.45692    2283.6442   -30648.295   -29822.331    255.45692   -1082.3588    92345.414   0.97182764    1100.8269 
  198500      2110000    -28534.17    255.03677    2279.8883   -30814.058   -29790.032    255.03677   -932.50438    92345.414   0.97182764    1103.1193 
  199000      2115000   -28424.509      260.937    2332.6331   -30757.142   -30446.692      260.937   -1501.5135    92345.414   0.97182764    1105.4153 
  199500      2120000   -28370.047    265.88846    2376.8964   -30746.944   -30060.217    265.88846    -1254.987    92345.414   0.97182764     1107.697 
  200000      2125000   -28438.587    267.01432     2386.961   -30825.548   -30290.491    267.01432   -1375.0776    92345.414   0.97182764    1110.0487 
  200500      2130000   -28479.296    260.98006    2333.0181   -30812.315   -30324.299    260.98006   -1369.9532    92345.414   0.97182764    1112.3701 
  201000      2135000   -28525.867    255.01494    2279.6931    -30805.56   -29923.981    255.01494   -1038.1289    92345.414   0.97182764    1114.6886 
  201500      2140000   -28555.195    252.62331    2258.3133   -30813.508   -30081.442    252.62331   -1133.2703    92345.414   0.97182764    1116.9959 
  202000      2145000   -28453.635    258.88611    2314.2993   -30767.934   -30023.453    258.88611   -1165.6225    92345.414   0.97182764    1119.2864 
  202500      2150000   -28557.931    259.20223    2317.1252   -30875.056   -30132.596    259.20223   -1169.2221    92345.414   0.97182764    1121.6305 
  203000      2155000   -28507.496     255.4393    2283.4867   -30790.983   -30018.513     255.4393   -1121.9615    92345.414   0.97182764    1123.9176 
  203500      2160000   -28490.421    261.67002    2339.1859   -30829.607   -30166.094    261.67002   -1244.2223    92345.414   0.97182764    1126.1839 
  204000      2165000   -28557.039    254.81123     2277.872   -30834.912   -30688.104    254.81123     -1582.36    92345.414   0.97182764    1128.4584 
  204500      2170000     -28480.1    258.95016    2314.8719   -30794.972   -30043.351    258.95016   -1160.7469    92345.414   0.97182764    1130.7539 
  205000      2175000   -28606.757    249.72837    2232.4341   -30839.191   -30435.018    249.72837   -1357.5218    92345.414   0.97182764    1133.0591 
  205500      2180000   -28604.623    254.34872    2273.7375   -30878.361   -30243.607    254.34872   -1216.9798    92345.414   0.97182764    1135.4686 
  206000      2185000   -28493.039    258.47707    2310.6426   -30803.682   -30033.631    258.47707   -1143.9222    92345.414   0.97182764    1137.7408 
  206500      2190000   -28554.637    250.87286    2242.6652   -30797.302   -30134.945    250.87286    -1173.412    92345.414   0.97182764    1140.0236 
  207000      2195000   -28616.301    256.56541    2293.5535   -30909.855   -30564.319    256.56541   -1446.4446    92345.414   0.97182764    1142.3604 
[...]
  439000      4515000   -34289.363    52.292216    467.46361   -34756.826    -35281.28    52.292216   -736.51945    92345.414   0.97182764     1952.853 
  439500      4520000   -34276.085    53.750063    480.49597   -34756.581   -35259.092    53.750063   -729.90324    92345.414   0.97182764    1954.2016 
  440000      4525000   -34280.177    53.378348    477.17304    -34757.35   -35304.874    53.378348   -760.85883    92345.414   0.97182764    1955.5659 
  440500      4530000   -34302.203    52.020931    465.03847   -34767.242   -35262.452    52.020931   -713.00488    92345.414   0.97182764     1956.922 
  441000      4535000   -34320.966    50.992474    455.84464    -34776.81   -35291.432    50.992474   -720.59139    92345.414   0.97182764    1958.2659 
  441500      4540000   -34329.905     51.54921    460.82155   -34790.727   -35327.909     51.54921   -741.03842    92345.414   0.97182764    1959.6318 
  442000      4545000   -34327.755    50.616908    452.48728   -34780.242   -35302.958    50.616908   -724.10924    92345.414   0.97182764    1960.9842 
  442500      4550000   -34337.621    49.887023    445.96251   -34783.584    -35315.72    49.887023   -726.25909    92345.414   0.97182764    1962.3182 
  443000      4555000    -34352.79    49.094392    438.87683   -34791.667   -35350.151    49.094392   -740.56146    92345.414   0.97182764    1963.6493 
  443500      4560000   -34360.773    48.759947    435.88708    -34796.66   -35413.931    48.759947   -781.99231    92345.414   0.97182764    1964.9887 
  444000      4565000   -34356.093    48.926203    437.37331   -34793.466    -35357.74    48.926203   -743.74405    92345.414   0.97182764     1966.327 
  444500      4570000    -34355.71    49.441658     441.9812   -34797.691   -35349.364    49.441658   -737.80912    92345.414   0.97182764    1967.6744 
  445000      4575000   -34385.807    47.309476    422.92066   -34808.728   -35387.604    47.309476   -743.85551    92345.414   0.97182764    1969.0238 
  445500      4580000   -34379.298    47.602416    425.53939   -34804.837   -35384.053    47.602416   -746.05207    92345.414   0.97182764    1970.3594 
  446000      4585000   -34380.611    48.022898    429.29827   -34809.909    -35464.86    48.022898   -805.07748    92345.414   0.97182764    1971.7069 
  446500      4590000   -34401.955    45.684915    408.39798   -34810.353   -35397.294    45.684915   -739.05993    92345.414   0.97182764    1973.0358 
  447000      4595000   -34417.408    45.376652    405.64228    -34823.05   -35502.221    45.376652   -805.49662    92345.414   0.97182764    1974.5087 
  447500      4600000   -34420.411    45.696444    408.50105   -34828.912   -35448.084    45.696444    -763.0687    92345.414   0.97182764    1975.8658 
  448000      4605000   -34427.487    44.629796     398.9658   -34826.453   -35534.369    44.629796   -821.88297    92345.414   0.97182764    1977.1952 
  448500      4610000   -34447.009    44.374038    396.67946   -34843.688   -35486.565    44.374038   -771.89232    92345.414   0.97182764    1978.5156 
  449000      4615000   -34458.239    43.986803    393.21779   -34851.457   -35507.939    43.986803   -779.42484    92345.414   0.97182764    1979.8473 
  449500      4620000   -34449.858    43.731408    390.93471   -34840.793   -35482.109    43.731408   -766.46757    92345.414   0.97182764    1981.2042 
  450000      4625000    -34454.13    44.405851    396.96385   -34851.094   -35481.216    44.405851   -762.63301    92345.414   0.97182764     1982.538 
  450500      4630000    -34464.68    43.562996     389.4292   -34854.109   -35492.873    43.562996   -763.45467    92345.414   0.97182764    1983.8729 
  451000      4635000   -34476.427    42.177961    377.04775   -34853.474    -35589.61    42.177961   -826.56203    92345.414   0.97182764    1985.2288 
  451500      4640000   -34487.317    42.043215    375.84319    -34863.16   -35553.538    42.043215   -791.69138    92345.414   0.97182764    1986.5643 
  452000      4645000    -34485.08    42.098269    376.33534   -34861.416   -35671.475    42.098269   -880.92264    92345.414   0.97182764    1987.9089 
  452500      4650000   -34483.795     41.90674    374.62318   -34858.418    -35560.87     41.90674   -799.75098    92345.414   0.97182764    1989.2289 
  453000      4655000   -34494.332    41.127519    367.65737   -34861.989   -35568.181    41.127519    -797.3553    92345.414   0.97182764    1990.5571 
  453500      4660000   -34519.698    39.539897    353.46491   -34873.163   -35560.361    39.539897   -772.71421    92345.414   0.97182764    1991.8923 
  454000      4665000    -34528.86    39.030693     348.9129   -34877.773    -35609.76    39.030693   -802.59137    92345.414   0.97182764    1993.2016 
  454500      4670000   -34518.302    40.284927    360.12506   -34878.427   -35634.635    40.284927   -828.90091    92345.414   0.97182764    1994.5214 
  455000      4675000   -34548.031    39.052343    349.10645   -34897.137   -35665.545    39.052343   -829.77802    92345.414   0.97182764    1995.8458 
  455500      4680000   -34546.419    38.675469    345.73739   -34892.157   -35685.186    38.675469   -845.55842    92345.414   0.97182764     1997.161 
  456000      4685000   -34540.624    37.954866     339.2956   -34879.919   -35634.916    37.954866   -812.53514    92345.414   0.97182764    1998.4875 
  456500      4690000   -34575.218    37.079432     331.4697   -34906.688   -35683.146    37.079432   -822.65954    92345.414   0.97182764    1999.8113 
  457000      4695000   -34567.297    37.701229    337.02823   -34904.326   -35696.249    37.701229   -838.27023    92345.414   0.97182764    2001.1401 
  457500      4700000   -34576.547    36.520803    326.47587   -34903.023   -35736.991    36.520803    -861.6536    92345.414   0.97182764    2002.4937 
  458000      4705000   -34585.754    36.427454    325.64138   -34911.395   -35735.042    36.427454   -853.37057    92345.414   0.97182764    2003.8222 
  458500      4710000   -34601.595    35.376931    316.25028   -34917.846   -35733.362    35.376931   -840.36086    92345.414   0.97182764    2005.1553 
  459000      4715000   -34602.932    35.964871    321.50614   -34924.438   -35747.903    35.964871   -850.16487    92345.414   0.97182764    2006.4764 
  459500      4720000   -34615.204    34.680372    310.02343   -34925.228   -35792.814    34.680372   -874.40035    92345.414   0.97182764     2007.805 
  460000      4725000   -34623.365    34.461493    308.06677   -34931.432   -35727.363    34.461493   -819.74172    92345.414   0.97182764    2009.1272 
  460500      4730000   -34622.003    34.758293       310.72   -34932.723   -35800.688    34.758293   -875.19788    92345.414   0.97182764    2010.4473 
  461000      4735000   -34639.915    33.401328    298.58948   -34938.505   -35780.922    33.401328   -847.22128    92345.414   0.97182764    2011.7972 
  461500      4740000   -34646.541    32.839061    293.56312   -34940.104   -35831.551    32.839061   -879.89533    92345.414   0.97182764     2013.128 
  462000      4745000   -34649.172    33.128978    296.15482   -34945.327   -35795.995    33.128978   -851.53991    92345.414   0.97182764      2014.44 
  462500      4750000   -34666.521    31.185843    278.78427   -34945.305   -35878.661    31.185843   -900.03922    92345.414   0.97182764     2015.757 
  463000      4755000   -34664.301    32.618863    291.59467   -34955.895   -35849.477    32.618863   -880.01813    92345.414   0.97182764    2017.0678 
  463500      4760000   -34686.175    30.616595     273.6955   -34959.871   -35914.096    30.616595    -911.7567    92345.414   0.97182764     2018.381 
  464000      4765000   -34686.609    31.049509    277.56551   -34964.174   -35881.143    31.049509    -886.9669    92345.414   0.97182764     2019.709 
  464500      4770000   -34689.036    31.121323    278.20749   -34967.243   -35875.124    31.121323   -880.69577    92345.414   0.97182764    2021.0076 
  465000      4775000   -34707.736    29.806256    266.45151   -34974.188   -35889.835    29.806256   -877.73351    92345.414   0.97182764    2022.3736 
  465500      4780000   -34708.424    29.850855    266.85021   -34975.274    -35922.93    29.850855   -901.79595    92345.414   0.97182764    2023.6729 
  466000      4785000   -34715.498    29.749063    265.94024   -34981.439   -35942.155    29.749063   -910.81851    92345.414   0.97182764    2024.9862 
  466500      4790000   -34717.684     29.70224    265.52167   -34983.206   -35864.714     29.70224    -851.6938    92345.414   0.97182764    2026.2874 
  467000      4795000   -34714.055     29.41761    262.97723   -34977.032   -35971.621     29.41761   -933.76977    92345.414   0.97182764     2027.586 
  467500      4800000   -34740.244    28.187026    251.97649    -34992.22   -35955.762    28.187026   -902.54789    92345.414   0.97182764    2028.8872 
  468000      4805000   -34738.516    28.097545    251.17658   -34989.692   -35989.968    28.097545   -929.22957    92345.414   0.97182764    2030.1913 
  468500      4810000   -34754.264    27.100955    242.26762   -34996.531   -36068.545    27.100955   -975.88178    92345.414   0.97182764     2031.603 
  469000      4815000   -34754.974    27.487856     245.7263     -35000.7   -35982.816    27.487856   -911.69907    92345.414   0.97182764     2032.896 
  469500      4820000   -34774.177    26.147999    233.74871   -35007.926   -36054.124    26.147999    -950.3869    92345.414   0.97182764    2034.4574 
  470000      4825000   -34773.497    26.341365    235.47729   -35008.975   -36071.177    26.341365   -963.55464    92345.414   0.97182764    2035.7585 
  470500      4830000   -34781.883    26.053274    232.90192   -35014.785   -36027.184    26.053274    -924.6618    92345.414   0.97182764    2037.0582 
  471000      4835000   -34792.635    24.880131    222.41467    -35015.05   -36061.408    24.880131   -942.09065    92345.414   0.97182764    2038.3454 
  471500      4840000   -34801.117    24.692834    220.74034   -35021.857   -36093.728    24.692834   -959.79098    92345.414   0.97182764    2039.6336 
  472000      4845000   -34812.841    23.868553    213.37172   -35026.213   -36077.127    23.868553   -938.75909    92345.414   0.97182764    2040.9563 
  472500      4850000   -34817.843    24.162433    215.99885   -35033.842   -36097.349    24.162433   -950.05967    92345.414   0.97182764    2042.2475 
  473000      4855000   -34824.815    23.358841    208.81517    -35033.63   -36107.292    23.358841   -952.26634    92345.414   0.97182764    2043.5535 
  473500      4860000   -34831.771    23.126645    206.73947   -35038.511   -36159.648    23.126645   -985.97655    92345.414   0.97182764    2044.8462 
  474000      4865000    -34846.03    22.539778    201.49321   -35047.523    -36132.68    22.539778   -955.36516    92345.414   0.97182764    2046.1621 
  474500      4870000    -34849.45     22.02406    196.88297   -35046.333   -36142.166     22.02406   -959.86939    92345.414   0.97182764    2047.4533 
  475000      4875000   -34859.385    21.468405    191.91572   -35051.301   -36163.491    21.468405   -968.32645    92345.414   0.97182764    2048.7555 
  475500      4880000   -34863.862    21.658727     193.6171   -35057.479    -36169.01    21.658727       -969.1    92345.414   0.97182764    2050.0524 
  476000      4885000   -34871.828    20.820491    186.12372   -35057.952   -36179.716    20.820491    -971.1342    92345.414   0.97182764    2051.3323 
  476500      4890000   -34878.443    20.382852    182.21147   -35060.654   -36202.391    20.382852    -983.0594    92345.414   0.97182764    2052.6178 
  477000      4895000   -34884.039    20.536842    183.58806   -35067.627   -36214.795    20.536842   -988.11453    92345.414   0.97182764     2053.903 
  477500      4900000   -34895.638    19.388206    173.31989   -35068.958   -36239.196    19.388206   -997.61971    92345.414   0.97182764    2055.1991 
  478000      4905000   -34899.743    19.143623    171.13345   -35070.877   -36262.644    19.143623   -1011.9822    92345.414   0.97182764    2056.4694 
  478500      4910000   -34910.644    18.516157    165.52424   -35076.168   -36270.391    18.516157   -1009.6407    92345.414   0.97182764    2057.7545 
  479000      4915000   -34919.715    17.888034    159.90917   -35079.624   -36267.386    17.888034   -1000.6744    92345.414   0.97182764    2059.0376 
  479500      4920000   -34926.121    17.945943    160.42684   -35086.548   -36290.904    17.945943   -1013.3802    92345.414   0.97182764    2060.3183 
  480000      4925000   -34939.202    16.730482     149.5613   -35088.763   -36326.939    16.730482   -1030.4239    92345.414   0.97182764    2061.6141 
  480500      4930000   -34941.955     17.02498    152.19395   -35094.149   -36348.205     17.02498   -1044.1698    92345.414   0.97182764    2062.8908 
  481000      4935000   -34951.136    16.502986    147.52761   -35098.664   -36305.839    16.502986   -1005.8955    92345.414   0.97182764    2064.1947 
  481500      4940000    -34957.54     15.87034     141.8721   -35099.412   -36360.666     15.87034   -1041.8507    92345.414   0.97182764    2065.5015 
  482000      4945000   -34961.853    15.922356    142.33709   -35104.191   -36338.303    15.922356    -1022.043    92345.414   0.97182764    2066.8101 
  482500      4950000   -34973.976    15.157472    135.49945   -35109.475   -36350.626    15.157472   -1022.1914    92345.414   0.97182764    2068.1171 
  483000      4955000   -34982.755    14.614962    130.64971   -35113.405   -36368.984    14.614962    -1029.304    92345.414   0.97182764    2069.3957 
  483500      4960000   -34992.704    14.041239    125.52095   -35118.225   -36408.081    14.041239   -1050.9476    92345.414   0.97182764     2070.712 
  484000      4965000   -34997.324    13.841875    123.73874   -35121.063    -36435.92    13.841875   -1068.1876    92345.414   0.97182764    2071.9942 
  484500      4970000    -35006.43    13.331892    119.17977    -35125.61   -36424.223    13.331892   -1052.7413    92345.414   0.97182764    2073.2603 
  485000      4975000   -35012.859    13.051115    116.66978   -35129.529   -36398.764    13.051115    -1029.064    92345.414   0.97182764    2074.5379 
  485500      4980000   -35017.379    12.641886     113.0115   -35130.391   -36437.301    12.641886   -1054.3222    92345.414   0.97182764     2075.938 
  486000      4985000   -35030.911    11.970144     107.0065   -35137.918   -36469.558    11.970144   -1068.2256    92345.414   0.97182764    2077.2001 
  486500      4990000   -35032.689    11.835626    105.80398   -35138.493    -36453.54    11.835626   -1055.0119    92345.414   0.97182764    2078.4653 
  487000      4995000    -35044.32    11.184339    99.981834   -35144.301   -36484.076    11.184339   -1069.0497    92345.414   0.97182764    2079.7425 
  487500      5000000   -35050.484    10.877584    97.239614   -35147.724   -36488.447    10.877584   -1067.7172    92345.414   0.97182764    2081.0394 
  488000      5005000   -35058.609    10.651513    95.218662   -35153.827   -36506.824    10.651513   -1075.3305    92345.414   0.97182764    2082.3089 
  488500      5010000   -35067.978    10.033813    89.696759   -35157.675    -36483.71    10.033813   -1051.2106    92345.414   0.97182764    2083.5687 
  489000      5015000    -35074.45    9.6245895    86.038531   -35160.488   -36541.182    9.6245895   -1089.0798    92345.414   0.97182764     2084.832 
  489500      5020000   -35082.829    9.3083513    83.211535    -35166.04   -36534.568    9.3083513   -1077.9466    92345.414   0.97182764    2086.1098 
  490000      5025000   -35090.652     8.705205    77.819739   -35168.472   -36537.856     8.705205   -1074.5793    92345.414   0.97182764    2087.3672 
  490500      5030000   -35099.039    8.3115132    74.300351    -35173.34   -36544.267    8.3115132   -1073.1124    92345.414   0.97182764    2088.6188 
  491000      5035000   -35106.201    7.8357016    70.046858   -35176.248   -36562.903    7.8357016   -1081.6318    92345.414   0.97182764    2089.8785 
  491500      5040000     -35113.9    7.4591718    66.680888   -35180.581    -36557.52    7.4591718   -1071.9179    92345.414   0.97182764    2091.1675 
  492000      5045000   -35122.196     6.916482     61.82954   -35184.025   -36606.252     6.916482   -1101.9429    92345.414   0.97182764     2092.468 
  492500      5050000   -35129.206    6.6229488    59.205516   -35188.412   -36604.423    6.6229488   -1095.3796    92345.414   0.97182764    2093.8583 
  493000      5055000   -35137.367    6.0879301    54.422743   -35191.789   -36616.912    6.0879301   -1098.5939    92345.414   0.97182764     2095.135 
  493500      5060000   -35145.135    5.6369599    50.391317   -35195.526    -36633.54    5.6369599   -1105.1725    92345.414   0.97182764    2096.4032 
  494000      5065000   -35152.567    5.2175584    46.642099    -35199.21   -36640.385    5.2175584   -1104.7362    92345.414   0.97182764    2097.6555 
  494500      5070000   -35160.513    4.8690208    43.526365   -35204.039   -36662.543    4.8690208   -1115.2896    92345.414   0.97182764    2098.9199 
  495000      5075000   -35168.019    4.5112644    40.328219   -35208.347   -36677.442    4.5112644   -1120.7785    92345.414   0.97182764    2100.1817 
  495500      5080000    -35175.59    4.0204209    35.940349   -35211.531   -36669.359    4.0204209    -1109.155    92345.414   0.97182764    2101.4624 
  496000      5085000   -35183.125    3.5695138    31.909488   -35215.035   -36695.206    3.5695138   -1122.7521    92345.414   0.97182764    2102.7376 
  496500      5090000    -35190.65    3.2196358    28.781771   -35219.432    -36700.73    3.2196358   -1121.2661    92345.414   0.97182764    2103.9879 
  497000      5095000   -35198.089    2.8151279    25.165693   -35223.255   -36701.777    2.8151279   -1116.5201    92345.414   0.97182764    2105.2495 
  497500      5100000   -35205.452     2.406292    21.510925   -35226.963   -36725.889     2.406292   -1128.9565    92345.414   0.97182764    2106.4894 
  498000      5105000   -35212.703     2.012877    17.994012   -35230.697   -36737.208     2.012877   -1131.9777    92345.414   0.97182764     2107.737 
  498500      5110000   -35219.852    1.6112638    14.403811   -35234.256   -36755.882    1.6112638   -1140.5344    92345.414   0.97182764    2108.9793 
  499000      5115000   -35226.894    1.2045642     10.76814   -35237.662   -36771.255    1.2045642   -1146.7208    92345.414   0.97182764    2110.2284 
  499500      5120000    -35233.92   0.82140346    7.3428946   -35241.263   -36779.764   0.82140346    -1147.822    92345.414   0.97182764    2111.4815 
  500000      5125000   -35242.785    0.3231693    2.8889556   -35245.674   -36790.285    0.3231693   -1149.0518    92345.414   0.97182764    2112.7203 
Loop time of 2112.72 on 2 procs for 500000 steps with 3000 atoms

Performance: 204.476 ns/day, 0.117 hours/ns, 236.662 timesteps/s
96.4% CPU use with 2 MPI tasks x no OpenMP threads

MPI task timing breakdown:
Section |  min time  |  avg time  |  max time  |%varavg| %total
---------------------------------------------------------------
Pair    | 1893.8     | 1908.7     | 1923.6     |  34.1 | 90.34
Neigh   | 102.11     | 102.25     | 102.38     |   1.3 |  4.84
Comm    | 64.714     | 79.704     | 94.694     | 167.9 |  3.77
Output  | 0.72994    | 0.74513    | 0.76032    |   1.8 |  0.04
Modify  | 17.623     | 17.707     | 17.791     |   2.0 |  0.84
Other   |            | 3.6        |            |       |  0.17

Nlocal:    1500 ave 1506 max 1494 min
Histogram: 1 0 0 0 0 0 0 0 0 1
Nghost:    2236 ave 2241 max 2231 min
Histogram: 1 0 0 0 0 0 0 0 0 1
Neighs:    0 ave 0 max 0 min
Histogram: 2 0 0 0 0 0 0 0 0 0
FullNghs:  43830 ave 44038 max 43622 min
Histogram: 1 0 0 0 0 0 0 0 0 1

Total # of neighbors = 87660
Ave neighs/atom = 29.22
Neighbor list builds = 37631
Dangerous builds = 29157

Total wall time: 0:37:30
