LAMMPS (11 Aug 2017)
####################################################################################
# External variables that have to be passed on call
# Temperature 	= temperature of the system
# trjFile	= name of the .xtc trajectory file
# dataFile	= name of the .data input for Lammps
# nRand		= random number as seed for the velocity creation
# Timestep	= timestep in fs
# Eps		= LJ epsilon of mW C interaction
# Sigma		= LJ epsilon of mW C interaction
# nTimesteps	= number of timesteps to run
# nStride       = stride of thermo and trajectory output
# pass variables to the script via ${variable_name}
#####################################################################################

units real
dimension 3
newton on
processors * * *
boundary p p p
atom_style atomic
box tilt large
read_data liq.data
  orthogonal box = (-0.005 0.0045 0.008999) to (45.195 45.2045 45.209)
  1 by 1 by 2 MPI processor grid
  reading atoms ...
  3000 atoms


###################### MASS ######################

mass 1 18.015


###################### GROUPS ######################

group mW type 1
3000 atoms in group mW


###################### INTERACTIONS ######################

pair_style sw  # stilinger-weber potl
pair_coeff * * mW-mW.sw mW


###################### INTERACTIONS ######################

neighbor 2.0 bin
timestep ${Timestep}
timestep 10
min_style cg
run_style verlet


###################### COMPUTES ######################

compute mWtemp mW temp
thermo $(v_psStride*1000/v_Timestep)
thermo 500
thermo_style custom step time etotal c_mWtemp ke pe enthalpy temp press vol density cpu
thermo_modify flush yes


###################### FIX ######################

#fix wallz mW wall/lj93 zlo 0.001 0.5 2 5
#fix_modify wallz energy yes


###################### RUNNING ######################

dump d1 all xtc $(v_psStride*1000/v_Timestep) ${trjFile}
dump d1 all xtc 500 ${trjFile}
dump d1 all xtc 500 333-0.1/trj.xtc


###################### MINIMIZATION ######################

minimize 1e-13 1e-15 5000 50000
WARNING: Using 'neigh_modify every 1 delay 0 check yes' setting during minimization (../min.cpp:168)
Neighbor list info ...
  update every 1 steps, delay 0 steps, check yes
  max neighbors/atom: 2000, page size: 100000
  master list distance cutoff = 6.09869
  ghost atom cutoff = 6.09869
  binsize = 3.04935, bins = 15 15 15
  1 neighbor lists, perpetual/occasional/extra = 1 0 0
  (1) pair sw, perpetual
      attributes: full, newton on
      pair build: full/bin/atomonly
      stencil: full/bin/3d
      bin: standard
Per MPI rank memory allocation (min/avg/max) = 4.117 | 4.118 | 4.119 Mbytes
Step Time TotEng c_mWtemp KinEng PotEng Enthalpy Temp Press Volume Density CPU 
       0            0    1081442.9            0            0    1081442.9    2680077.2            0    1187019.7    92345.414   0.97182764            0 
     500         5000   -33648.094            0            0   -33648.094   -35297.219            0   -1224.5093    92345.414   0.97182764     6.329923 
     593         5930   -33651.026            0            0   -33651.026    -35278.87            0   -1208.7086    92345.414   0.97182764      8.20421 
Loop time of 8.20425 on 2 procs for 593 steps with 3000 atoms

78.3% CPU use with 2 MPI tasks x no OpenMP threads

Minimization stats:
  Stopping criterion = linesearch alpha is zero
  Energy initial, next-to-last, final = 
         1081442.87387     -33651.0257623     -33651.0257623
  Force two-norm initial, final = 5.79938e+06 0.0752938
  Force max component initial, final = 2.35806e+06 0.0170692
  Final line search alpha, max atom move = 1.90735e-06 3.25569e-08
  Iterations, force evaluations = 593 920

MPI task timing breakdown:
Section |  min time  |  avg time  |  max time  |%varavg| %total
---------------------------------------------------------------
Pair    | 6.3961     | 6.7886     | 7.1811     |  15.1 | 82.74
Neigh   | 0.13113    | 0.13504    | 0.13896    |   1.1 |  1.65
Comm    | 0.75741    | 1.1568     | 1.5563     |  37.1 | 14.10
Output  | 0.000668   | 0.0006815  | 0.000695   |   0.0 |  0.01
Modify  | 0          | 0          | 0          |   0.0 |  0.00
Other   |            | 0.1231     |            |       |  1.50

Nlocal:    1500 ave 1518 max 1482 min
Histogram: 1 0 0 0 0 0 0 0 0 1
Nghost:    2238.5 ave 2251 max 2226 min
Histogram: 1 0 0 0 0 0 0 0 0 1
Neighs:    0 ave 0 max 0 min
Histogram: 2 0 0 0 0 0 0 0 0 0
FullNghs:  43339 ave 44415 max 42263 min
Histogram: 1 0 0 0 0 0 0 0 0 1

Total # of neighbors = 86678
Ave neighs/atom = 28.8927
Neighbor list builds = 31
Dangerous builds = 0


###################### VELOCITIES ######################

velocity mW create ${T0} ${nRand} dist gaussian mom yes rot yes
velocity mW create 333 ${nRand} dist gaussian mom yes rot yes
velocity mW create 333 4353 dist gaussian mom yes rot yes


###################### EQUILIBRATION ######################

timestep $(v_Timestep/2)
timestep 5
fix f1 mW nvt temp ${T0} ${T0} $(100*v_Timestep/2) tchain 10
fix f1 mW nvt temp 333 ${T0} $(100*v_Timestep/2) tchain 10
fix f1 mW nvt temp 333 333 $(100*v_Timestep/2) tchain 10
fix f1 mW nvt temp 333 333 500 tchain 10
fix_modify f1 temp mWtemp
WARNING: Temperature for fix modify is not for group all (../fix_nh.cpp:1395)
run $(500*1000/v_Timestep/2)
run 25000
Per MPI rank memory allocation (min/avg/max) = 2.994 | 2.994 | 2.995 Mbytes
Step Time TotEng c_mWtemp KinEng PotEng Enthalpy Temp Press Volume Density CPU 
     593            0   -30674.189          333    2976.8366   -33651.026   -30317.476          333    264.86733    92345.414   0.97182764            0 
    1000         2035   -29774.435    207.46748     1854.645    -31629.08    -31026.46    207.46748   -929.65526    92345.414   0.97182764     3.192024 
    1500         4535   -28607.775    256.92106    2296.7328   -30904.508   -29913.995    256.92106   -969.89573    92345.414   0.97182764     7.176123 
    2000         7035   -27575.815    296.51054     2650.641   -30226.456   -28353.319    296.51054   -577.31312    92345.414   0.97182764     9.760963 
    2500         9535   -26844.252    324.81325    2903.6516   -29747.903   -27875.704    324.81325   -765.87481    92345.414   0.97182764    12.230522 
    3000        12035   -26753.693    332.82656    2975.2861   -29728.979   -28197.143    332.82656   -1071.7922    92345.414   0.97182764    14.719933 
    3500        14535   -26650.257     331.9373    2967.3367   -29617.593   -27379.045     331.9373   -541.14085    92345.414   0.97182764    19.456399 
    4000        17035   -26509.345    341.08872    3049.1454   -29558.491   -28072.818    341.08872   -1160.9113    92345.414   0.97182764    24.633308 
    4500        19535   -26707.107    328.93424     2940.491   -29647.598    -27793.58    328.93424   -806.72952    92345.414   0.97182764    30.076175 
    5000        22035   -26653.694    324.05962    2896.9146   -29550.609   -27961.605    324.05962    -971.1516    92345.414   0.97182764    35.435793 
    5500        24535   -26787.327    334.59258    2991.0734     -29778.4   -27801.048    334.59258   -752.70965    92345.414   0.97182764     40.04218 
    6000        27035   -26664.664    334.65101    2991.5957    -29656.26   -27708.103    334.65101   -774.77546    92345.414   0.97182764    44.962239 
    6500        29535   -26606.138    335.14831    2996.0414    -29602.18   -27831.034    335.14831   -909.51062    92345.414   0.97182764    50.072209 
    7000        32035   -26617.359    338.85504    3029.1775   -29646.537   -27553.133    338.85504   -694.83156    92345.414   0.97182764    54.511137 
    7500        34535   -26605.191     335.9326    3003.0525   -29608.243   -27619.454     335.9326   -753.11191    92345.414   0.97182764    58.857256 
    8000        37035   -26635.421    334.46066    2989.8942   -29625.315   -27183.362    334.46066   -406.85816    92345.414   0.97182764    63.187586 
    8500        39535   -26697.773    335.18379    2996.3585   -29694.131   -27226.389    335.18379   -392.50858    92345.414   0.97182764    67.545954 
    9000        42035   -26768.118    330.47633    2954.2764   -29722.394   -27605.734    330.47633   -621.94766    92345.414   0.97182764    71.920762 
    9500        44535   -26587.284    335.83679     3002.196    -29589.48   -28164.209    335.83679   -1170.8999    92345.414   0.97182764    76.905145 
   10000        47035   -26717.851     323.7265    2893.9367   -29611.788   -27947.943     323.7265   -913.36889    92345.414   0.97182764     83.41509 
   10500        49535   -26707.683    327.28776    2925.7723   -29633.455   -27606.048    327.28776   -667.05551    92345.414   0.97182764    89.651977 
   11000        52035   -26755.909    321.98315     2878.352   -29634.261   -28112.622    321.98315   -1007.3881    92345.414   0.97182764    95.829812 
   11500        54535   -26545.947    334.35079    2988.9119   -29534.859   -27174.908    334.35079   -467.01657    92345.414   0.97182764    101.91433 
   12000        57035   -26679.129    330.58998    2955.2924   -29634.421   -27429.767    330.58998   -557.36441    92345.414   0.97182764    106.74576 
   12500        59535   -26670.505    332.86801    2975.6567   -29646.162   -27494.959    332.86801   -612.17436    92345.414   0.97182764    111.19285 
   13000        62035   -26748.944    321.33821    2872.5867    -29621.53   -27751.454    321.33821   -744.38497    92345.414   0.97182764    115.40734 
   13500        64535   -26577.709    335.48246    2999.0285   -29576.738   -27476.111    335.48246   -667.08214    92345.414   0.97182764    119.71665 
   14000        67035   -26509.644    336.47827    3007.9304   -29517.575   -27596.156    336.47827   -806.75745    92345.414   0.97182764    123.94257 
   14500        69535   -26648.739    330.25249    2952.2754   -29601.014   -27585.696    330.25249   -695.71036    92345.414   0.97182764    128.18295 
   15000        72035   -26595.413     330.3439    2953.0926   -29548.505    -27831.02     330.3439   -917.46437    92345.414   0.97182764    132.81706 
   15500        74535   -26681.388    322.13212    2879.6837   -29561.072   -27811.847    322.13212   -839.38975    92345.414   0.97182764    137.26034 
   16000        77035   -26782.332     330.2278    2952.0547   -29734.387   -28035.448     330.2278   -930.46496    92345.414   0.97182764    141.67611 
   16500        79535   -26538.789     332.1855    2969.5554   -29508.344   -27543.458     332.1855   -745.98793    92345.414   0.97182764    145.87907 
   17000        82035    -26673.74    334.36871    2989.0721   -29662.812   -27819.965    334.36871   -851.09628    92345.414   0.97182764    150.29748 
   17500        84535   -26622.109    329.98916    2949.9214    -29572.03   -27680.993    329.98916   -786.24366    92345.414   0.97182764    154.69208 
   18000        87035   -26608.454    340.91233    3047.5685   -29656.023   -27436.066    340.91233   -614.51922    92345.414   0.97182764    158.96219 
   18500        89535   -26596.379    338.93716    3029.9116   -29626.291   -27398.806    338.93716   -595.81892    92345.414   0.97182764    163.09999 
   19000        92035   -26584.129    339.70678    3036.7916   -29620.921   -27330.715    339.70678   -554.35561    92345.414   0.97182764    167.36419 
   19500        94535     -26512.9    341.33485    3051.3456   -29564.245   -27732.745    341.33485   -905.76086    92345.414   0.97182764    171.82245 
   20000        97035   -26713.055    325.21123    2907.2093   -29620.265   -28072.443    325.21123   -1009.3737    92345.414   0.97182764    175.99035 
   20500        99535   -26632.859    331.04746     2959.382   -29592.241   -27664.819    331.04746   -766.25223    92345.414   0.97182764    180.23094 
   21000       102035   -26598.646    328.92287    2940.3893   -29539.035   -27750.908    328.92287   -855.57895    92345.414   0.97182764    184.77175 
   21500       104535   -26619.975    331.00658    2959.0166   -29578.992   -27663.215    331.00658   -774.62755    92345.414   0.97182764    188.84182 
   22000       107035   -26609.515    333.51102    2981.4049    -29590.92   -27584.938    333.51102   -724.27203    92345.414   0.97182764    193.00558 
   22500       109535   -26742.766    325.63944    2911.0373   -29653.803   -27862.429    325.63944    -831.3732    92345.414   0.97182764    197.32032 
   23000       112035   -26622.433    335.05134    2995.1744   -29617.608   -27841.544    335.05134   -905.21579    92345.414   0.97182764    201.48763 
   23500       114535   -26733.943    326.06424    2914.8347   -29648.778   -27392.762    326.06424   -489.18681    92345.414   0.97182764    205.65145 
   24000       117035    -26717.57     331.6853    2965.0839   -29682.654   -27909.136     331.6853   -884.76347    92345.414   0.97182764    209.86233 
   24500       119535   -26572.352    338.56201    3026.5579    -29598.91   -27635.377    338.56201   -789.31825    92345.414   0.97182764    213.92079 
   25000       122035   -26662.893    332.22741    2969.9301   -29632.823   -27783.295    332.22741   -831.92279    92345.414   0.97182764    218.14575 
   25500       124535   -26649.201     333.2067    2978.6845   -29627.885   -28170.528     333.2067   -1129.6179    92345.414   0.97182764    222.23827 
   25593       125000    -26642.28    334.44961    2989.7953   -29632.075   -28079.556    334.44961   -1067.2077    92345.414   0.97182764    223.00015 
Loop time of 223 on 2 procs for 25000 steps with 3000 atoms

Performance: 48.430 ns/day, 0.496 hours/ns, 112.107 timesteps/s
82.8% CPU use with 2 MPI tasks x no OpenMP threads

MPI task timing breakdown:
Section |  min time  |  avg time  |  max time  |%varavg| %total
---------------------------------------------------------------
Pair    | 182.96     | 183.73     | 184.51     |   5.7 | 82.39
Neigh   | 7.8766     | 7.8778     | 7.879      |   0.0 |  3.53
Comm    | 28.372     | 29.15      | 29.929     |  14.4 | 13.07
Output  | 0.045402   | 0.05158    | 0.057758   |   2.7 |  0.02
Modify  | 1.7964     | 1.7977     | 1.799      |   0.1 |  0.81
Other   |            | 0.3906     |            |       |  0.18

Nlocal:    1500 ave 1504 max 1496 min
Histogram: 1 0 0 0 0 0 0 0 0 1
Nghost:    2216 ave 2224 max 2208 min
Histogram: 1 0 0 0 0 0 0 0 0 1
Neighs:    0 ave 0 max 0 min
Histogram: 2 0 0 0 0 0 0 0 0 0
FullNghs:  44200 ave 44385 max 44015 min
Histogram: 1 0 0 0 0 0 0 0 0 1

Total # of neighbors = 88400
Ave neighs/atom = 29.4667
Neighbor list builds = 1912
Dangerous builds = 19


###################### RUN ######################

unfix f1
fix f2 mW nvt temp ${T0} ${T1} $(100*v_Timestep) tchain 10
fix f2 mW nvt temp 333 ${T1} $(100*v_Timestep) tchain 10
fix f2 mW nvt temp 333 0.1 $(100*v_Timestep) tchain 10
fix f2 mW nvt temp 333 0.1 1000 tchain 10
fix_modify f2 temp mWtemp
WARNING: Temperature for fix modify is not for group all (../fix_nh.cpp:1395)

reset_timestep 0
run 0
Per MPI rank memory allocation (min/avg/max) = 3.002 | 3.002 | 3.002 Mbytes
Step Time TotEng c_mWtemp KinEng PotEng Enthalpy Temp Press Volume Density CPU 
       0       125000    -26642.28    334.44961    2989.7953   -29632.075   -28079.556    334.44961   -1067.2077    92345.414   0.97182764            0 
Loop time of 3.5e-06 on 2 procs for 0 steps with 3000 atoms

71.4% CPU use with 2 MPI tasks x no OpenMP threads

MPI task timing breakdown:
Section |  min time  |  avg time  |  max time  |%varavg| %total
---------------------------------------------------------------
Pair    | 0          | 0          | 0          |   0.0 |  0.00
Neigh   | 0          | 0          | 0          |   0.0 |  0.00
Comm    | 0          | 0          | 0          |   0.0 |  0.00
Output  | 0          | 0          | 0          |   0.0 |  0.00
Modify  | 0          | 0          | 0          |   0.0 |  0.00
Other   |            | 3.5e-06    |            |       |100.00

Nlocal:    1500 ave 1511 max 1489 min
Histogram: 1 0 0 0 0 0 0 0 0 1
Nghost:    2216 ave 2222 max 2210 min
Histogram: 1 0 0 0 0 0 0 0 0 1
Neighs:    0 ave 0 max 0 min
Histogram: 2 0 0 0 0 0 0 0 0 0
FullNghs:  44309 ave 44642 max 43976 min
Histogram: 1 0 0 0 0 0 0 0 0 1

Total # of neighbors = 88618
Ave neighs/atom = 29.5393
Neighbor list builds = 0
Dangerous builds = 0

timestep ${Timestep}
timestep 10
run $(v_nsRunTime*1000000/v_Timestep)
run 500000
Per MPI rank memory allocation (min/avg/max) = 3.002 | 3.002 | 3.002 Mbytes
Step Time TotEng c_mWtemp KinEng PotEng Enthalpy Temp Press Volume Density CPU 
       0       125000    -26642.28    334.44961    2989.7953   -29632.075   -28079.556    334.44961   -1067.2077    92345.414   0.97182764            0 
     500       130000   -26602.491    334.17032    2987.2986   -29589.789   -27913.485    334.17032   -973.44087    92345.414   0.97182764     4.195519 
    1000       135000   -26529.791    339.67888    3036.5422   -29566.334   -27601.934    339.67888   -796.08853    92345.414   0.97182764     8.656066 
    1500       140000   -26570.975    332.92355    2976.1532   -29547.128   -27944.971    332.92355   -1020.2212    92345.414   0.97182764    12.826952 
    2000       145000   -26795.812    328.57944    2937.3193   -29733.131   -27993.073    328.57944   -888.99118    92345.414   0.97182764    17.099546 
    2500       150000   -26676.961    331.60112    2964.3314   -29641.293   -27075.354    331.60112   -295.81493    92345.414   0.97182764    21.369339 
    3000       155000   -26619.983    332.81873    2975.2162   -29595.199   -27187.452    332.81873   -421.35782    92345.414   0.97182764    25.544545 
    3500       160000   -26618.338     325.5832    2910.5345   -29528.872   -27869.158     325.5832    -928.7608    92345.414   0.97182764    29.636611 
    4000       165000   -26672.773    330.18487    2951.6709   -29624.443   -27637.599    330.18487   -716.40401    92345.414   0.97182764    33.891311 
    4500       170000   -26713.017     335.6071    3000.1427   -29713.159   -27993.928     335.6071   -951.10379    92345.414   0.97182764    38.117366 
    5000       175000   -26603.972    334.82019    2993.1081    -29597.08   -28265.186    334.82019   -1233.4865    92345.414   0.97182764    42.767037 
    5500       180000    -26541.42    330.49101    2954.4076   -29495.827   -28089.505    330.49101   -1149.4858    92345.414   0.97182764    47.012949 
    6000       185000    -26718.16    324.43795    2900.2967   -29618.457   -28024.135    324.43795   -969.71381    92345.414   0.97182764      51.1273 
    6500       190000   -26618.897    326.13492    2915.4666   -29534.363   -28054.354    326.13492   -1065.8572    92345.414   0.97182764    55.338569 
    7000       195000     -26729.3     323.6843    2893.5594    -29622.86    -27927.81     323.6843   -889.91843    92345.414   0.97182764    59.755971 
    7500       200000   -26788.033    324.05228     2896.849   -29684.882   -27986.844    324.05228   -890.14265    92345.414   0.97182764    63.852312 
    8000       205000   -26735.321    326.35882    2917.4681   -29652.789   -28165.483    326.35882   -1061.9258    92345.414   0.97182764    68.437819 
    8500       210000    -26634.63    324.03462    2896.6911   -29531.321   -27188.223    324.03462   -411.05454    92345.414   0.97182764    72.615172 
    9000       215000    -26738.26    326.80603    2921.4659   -29659.726   -27701.199    326.80603   -715.00241    92345.414   0.97182764    76.899636 
    9500       220000   -26759.175    323.27717    2889.9199   -29649.095   -27591.176    323.27717   -617.77776    92345.414   0.97182764    81.175532 
   10000       225000   -26776.806    330.82798      2957.42   -29734.226   -27772.255    330.82798   -739.14185    92345.414   0.97182764    85.379167 
   10500       230000    -26685.05    328.33067    2935.0954   -29620.146   -27519.463    328.33067   -619.56891    92345.414   0.97182764    89.457832 
   11000       235000    -26784.95    320.60353     2866.019   -29650.969   -27994.046    320.60353   -897.77982    92345.414   0.97182764    93.717634 
   11500       240000   -26856.183    326.07308    2914.9138   -29771.096   -27514.206    326.07308   -488.59655    92345.414   0.97182764    97.959544 
   12000       245000   -26727.099    328.31587    2934.9631   -29662.062    -28297.79    328.31587   -1166.2714    92345.414   0.97182764     102.0882 
   12500       250000   -26794.977    316.95063    2833.3641   -29628.341   -28591.173    316.95063   -1333.7132    92345.414   0.97182764    106.54639 
   13000       255000   -26848.836    321.23179    2871.6353   -29720.472   -28019.507    321.23179   -869.24771    92345.414   0.97182764    110.74572 
   13500       260000   -26815.766    320.90795    2868.7404   -29684.507   -28080.053    320.90795   -938.75976    92345.414   0.97182764    114.98392 
   14000       265000   -26816.303    327.59742    2928.5405   -29744.844   -28081.982    327.59742   -939.79284    92345.414   0.97182764    119.03143 
   14500       270000    -26829.92    324.22924    2898.4308   -29728.351   -27674.051    324.22924   -626.78512    92345.414   0.97182764    123.14736 
   15000       275000   -26837.491    330.14436    2951.3088   -29788.799   -28086.636    330.14436   -927.51698    92345.414   0.97182764    127.34452 
   15500       280000   -26915.558    316.94979    2833.3566   -29748.914   -28070.308    316.94979   -857.42638    92345.414   0.97182764    131.65052 
   16000       285000   -26908.122    318.71917    2849.1738   -29757.296   -27916.194    318.71917   -748.51448    92345.414   0.97182764    135.87074 
   16500       290000   -26803.394    320.18033    2862.2358    -29665.63   -27908.719    320.18033    -820.7269    92345.414   0.97182764    140.23842 
   17000       295000   -26841.881    318.62626    2848.3433   -29690.224   -27629.652    318.62626   -584.93707    92345.414   0.97182764    144.31119 
   17500       300000   -26881.661    324.40153     2899.971   -29781.632   -28059.646    324.40153   -874.67862    92345.414   0.97182764    148.39695 
   18000       305000   -26924.905    317.39357    2837.3237   -29762.229   -27619.901    317.39357   -516.04911    92345.414   0.97182764    152.61124 
   18500       310000   -26755.336    332.27012    2970.3119   -29725.648   -27638.655    332.27012   -655.88279    92345.414   0.97182764    156.84919 
   19000       315000   -26965.518    317.92462    2842.0711   -29807.589   -28445.061    317.92462   -1098.5919    92345.414   0.97182764      160.978 
   19500       320000   -26864.702    320.75337    2867.3585    -29732.06    -27461.19    320.75337   -442.90518    92345.414   0.97182764    165.07633 
   20000       325000    -26873.04    315.41179    2819.6077   -29692.648   -28624.702    315.41179    -1300.646    92345.414   0.97182764    169.27092 
   20500       330000   -26930.966    322.53034    2883.2436   -29814.209   -28496.796    322.53034   -1162.6623    92345.414   0.97182764    173.27868 
   21000       335000   -26848.954    317.19398    2835.5395   -29684.494   -27298.717    317.19398   -333.95836    92345.414   0.97182764    177.43168 
   21500       340000   -27012.849    311.54708    2785.0593   -29797.908    -28026.55    311.54708    -752.6949    92345.414   0.97182764    181.57578 
   22000       345000   -26943.114    312.09481    2789.9557    -29733.07   -27545.832    312.09481   -447.53049    92345.414   0.97182764    185.73452 
   22500       350000    -26835.73    320.56189    2865.6468   -29701.376   -27822.418    320.56189   -732.63683    92345.414   0.97182764    190.12955 
   23000       355000   -26880.636     325.8959    2913.3299   -29793.966    -28087.43     325.8959   -896.06966    92345.414   0.97182764    194.23485 
   23500       360000   -26910.718    316.13352    2826.0595   -29736.778   -28020.267    316.13352   -823.86374    92345.414   0.97182764    198.44183 
   24000       365000   -26910.539    321.60416    2874.9641   -29785.503   -27874.486    321.60416   -715.75067    92345.414   0.97182764    202.56295 
   24500       370000   -26986.342    314.76916     2813.863   -29800.205   -27862.859    314.76916   -650.83193    92345.414   0.97182764    206.66137 
   25000       375000   -26942.113     324.1336    2897.5759   -29839.689   -27837.727     324.1336   -665.01208    92345.414   0.97182764    211.22291 
   25500       380000   -26911.316    311.60434    2785.5712   -29696.888   -28038.918    311.60434   -837.26825    92345.414   0.97182764    215.41122 
   26000       385000    -27002.35    319.71845    2858.1069   -29860.457    -27893.36    319.71845   -661.59384    92345.414   0.97182764    219.44013 
   26500       390000   -26899.055    317.44312    2837.7667   -29736.821   -28377.795    317.44312   -1097.9962    92345.414   0.97182764    223.64254 
   27000       395000   -26881.642    331.97267    2967.6528   -29849.295   -27997.853    331.97267   -828.81001    92345.414   0.97182764    227.86432 
   27500       400000   -27115.591    307.38594     2747.861   -29863.452   -28375.118    307.38594   -935.22534    92345.414   0.97182764    231.90228 
   28000       405000   -27011.694    320.01457     2860.754   -29872.448   -28644.609    320.01457   -1212.4737    92345.414   0.97182764    236.01317 
   28500       410000   -26982.714    309.64899    2768.0915   -29750.805    -27774.44    309.64899   -587.87319    92345.414   0.97182764    240.13408 
   29000       415000   -27005.507    316.37953    2828.2587   -29833.766   -28435.078    316.37953   -1061.4864    92345.414   0.97182764     244.1993 
   29500       420000   -27072.118    317.90054    2841.8558   -29913.974   -28784.164    317.90054   -1271.2304    92345.414   0.97182764    248.80933 
   30000       425000   -27102.769    315.72743    2822.4294   -29925.199   -28449.689    315.72743   -1000.1159    92345.414   0.97182764    252.86424 
   30500       430000   -27054.277    313.74253    2804.6855   -29858.963   -28468.552    313.74253   -1050.1285    92345.414   0.97182764    256.73891 
   31000       435000   -26978.959    320.15581    2862.0166   -29840.975   -28309.007    320.15581    -987.5889    92345.414   0.97182764    260.40855 
   31500       440000   -27041.524    319.38592    2855.1342   -29896.658   -28360.745    319.38592   -979.54951    92345.414   0.97182764    263.96126 
   32000       445000   -27123.972    311.06533    2780.7528   -29904.725   -28686.892    311.06533   -1160.5007    92345.414   0.97182764    267.60285 
   32500       450000   -26927.512    316.17937    2826.4695   -29753.981   -28318.142    316.17937   -1032.5724    92345.414   0.97182764    271.29213 
   33000       455000   -27194.473    306.94722    2743.9391   -29938.412   -28814.925    306.94722   -1203.2197    92345.414   0.97182764    274.96823 
   33500       460000   -27086.798    305.10477    2727.4686   -29814.267   -28703.531    305.10477   -1200.4579    92345.414   0.97182764    278.55337 
   34000       465000   -27157.107    311.60078    2785.5394   -29942.647   -29124.438    311.60078   -1460.7847    92345.414   0.97182764    282.35683 
   34500       470000   -26923.888    318.30858    2845.5034   -29769.392   -27753.497    318.30858   -616.00166    92345.414   0.97182764    286.06462 
   35000       475000   -27231.877    298.61202     2669.427   -29901.304   -28775.604    298.61202   -1146.2503    92345.414   0.97182764    289.69756 
   35500       480000   -27087.224    312.22649    2791.1329   -29878.357   -28305.177    312.22649   -904.35607    92345.414   0.97182764    293.26515 
   36000       485000   -27085.328    312.93443    2797.4614    -29882.79   -28388.065    312.93443   -967.30926    92345.414   0.97182764    296.94455 
   36500       490000   -27084.635    315.46839    2820.1137   -29904.749   -28474.006    315.46839   -1031.6372    92345.414   0.97182764    300.61133 
   37000       495000   -27174.725    297.26253    2657.3634   -29832.088   -28956.536    297.26253   -1323.0325    92345.414   0.97182764    304.24294 
   37500       500000   -27165.991    310.72263    2777.6892   -29943.681   -27954.373    310.72263   -585.38992    92345.414   0.97182764    307.99948 
   38000       505000   -27340.211    300.72492    2688.3152   -30028.526   -29420.967    300.72492   -1545.0053    92345.414   0.97182764    311.60094 
   38500       510000   -27065.224    312.79218    2796.1898   -29861.414   -28509.458    312.79218    -1072.374    92345.414   0.97182764    372.44902 
   39000       515000   -27231.978    306.45509    2739.5397   -29971.518   -28983.277    306.45509   -1300.3762    92345.414   0.97182764    379.31917 
   39500       520000   -27168.001    315.34875    2819.0441   -29987.045   -28849.899    315.34875   -1248.8448    92345.414   0.97182764    385.64849 
   40000       525000   -27110.404    315.95309    2824.4467    -29934.85   -28377.284    315.95309   -940.68578    92345.414   0.97182764    391.49325 
   40500       530000    -27188.89    303.94086    2717.0639   -29905.954   -28767.932    303.94086   -1172.4715    92345.414   0.97182764    396.99652 
   41000       535000   -27228.888    305.61425    2732.0231   -29960.911   -28894.568    305.61425   -1236.8024    92345.414   0.97182764    402.34881 
   41500       540000   -27259.468    303.89755    2716.6767   -29976.144   -28849.995    303.89755   -1180.9998    92345.414   0.97182764    407.60225 
   42000       545000   -27211.574    304.96867     2726.252   -29937.826   -28843.068    304.96867   -1211.4183    92345.414   0.97182764    412.84085 
   42500       550000   -27129.247    307.81299    2751.6786   -29880.926   -28389.209    307.81299   -935.54812    92345.414   0.97182764    422.89164 
   43000       555000   -27234.947    307.30402    2747.1288   -29982.076    -28940.43    307.30402   -1266.3567    92345.414   0.97182764    430.22977 
   43500       560000   -27315.959    300.26199    2684.1769   -30000.136   -29127.582    300.26199   -1345.1681    92345.414   0.97182764    434.58997 
   44000       565000   -27365.771    301.21261    2692.6749   -30058.446   -29570.754    301.21261    -1637.246    92345.414   0.97182764    438.79733 
   44500       570000   -27337.561    303.13018    2709.8169   -30047.378   -28481.013    303.13018   -849.03775    92345.414   0.97182764    442.82774 
   45000       575000   -27278.934    298.48956    2668.3323   -29947.266   -28801.147    298.48956   -1130.2752    92345.414   0.97182764    447.14345 
   45500       580000   -27212.172    306.98019    2744.2339   -29956.406   -28364.655    306.98019   -855.74242    92345.414   0.97182764    451.55686 
   46000       585000   -27369.383    295.37236    2640.4663   -30009.849   -28503.609    295.37236   -842.18657    92345.414   0.97182764    456.88536 
   46500       590000   -27395.883    293.60596    2624.6756   -30020.559   -28865.278    293.60596   -1091.0568    92345.414   0.97182764    461.72505 
   47000       595000   -27359.713     303.7869    2715.6876     -30075.4   -29105.569     303.7869    -1296.335    92345.414   0.97182764    466.34268 
   47500       600000   -27331.278    307.24973    2746.6434   -30077.921   -29402.743    307.24973   -1538.1066    92345.414   0.97182764    470.78617 
   48000       605000    -27291.63    308.89576     2761.358   -30052.988   -28675.391    308.89576   -1027.4713    92345.414   0.97182764    478.73941 
   48500       610000   -27483.642    295.97795    2645.8799   -30129.522   -29194.735    295.97795   -1270.5229    92345.414   0.97182764    483.76057 
   49000       615000   -27441.213    289.18039    2585.1134   -30026.327     -29159.9    289.18039   -1276.1613    92345.414   0.97182764    488.05698 
   49500       620000   -27336.998    305.70916    2732.8716    -30069.87   -28540.297    305.70916    -893.4746    92345.414   0.97182764    493.44275 
   50000       625000   -27311.337    299.45696    2676.9803   -29988.318    -29134.79    299.45696   -1353.9516    92345.414   0.97182764    499.12693 
   50500       630000   -27349.673    305.01138    2726.6337   -30076.307    -28346.93    305.01138   -740.48401    92345.414   0.97182764    503.80572 
   51000       635000   -27380.625    302.76754     2706.575     -30087.2   -29010.615    302.76754   -1210.3013    92345.414   0.97182764    508.52122 
   51500       640000   -27440.993    296.22321    2648.0724   -30089.065   -29098.538    296.22321   -1230.7621    92345.414   0.97182764    513.09385 
   52000       645000   -27475.004    296.13841    2647.3143   -30122.319    -28821.93    296.13841   -1000.1206    92345.414   0.97182764    517.78342 
   52500       650000   -27418.133    295.24503     2639.328   -30057.461   -28902.656    295.24503   -1102.2895    92345.414   0.97182764    522.42382 
   53000       655000   -27391.087    295.60664    2642.5606   -30033.648   -28994.699    295.60664   -1190.7155    92345.414   0.97182764    527.04303 
   53500       660000   -27416.825    294.68479    2634.3197   -30051.145   -29387.681    294.68479   -1463.4021    92345.414   0.97182764    531.39872 
   54000       665000   -27362.783      298.874     2671.769   -30034.552   -29115.959      298.874   -1301.7699    92345.414   0.97182764    536.06498 
   54500       670000   -27422.914    293.06806     2619.867   -30042.781   -28908.208    293.06806   -1102.8617    92345.414   0.97182764    540.69261 
   55000       675000   -27484.822    297.19274    2656.7395   -30141.561   -28794.761    297.19274   -972.65766    92345.414   0.97182764    545.28771 
   55500       680000   -27313.294    302.94295    2708.1431   -30021.437   -29213.672    302.94295   -1411.0705    92345.414   0.97182764    549.81379 
   56000       685000   -27436.102    295.47576    2641.3906   -30077.493    -28484.76    295.47576   -778.65041    92345.414   0.97182764    554.30634 
   56500       690000   -27500.144    291.96403    2609.9977   -30110.141   -29669.825    291.96403   -1611.0342    92345.414   0.97182764    558.69618 
   57000       695000   -27475.772    298.31394    2666.7624   -30142.534   -29535.624    298.31394   -1529.4836    92345.414   0.97182764    563.97033 
   57500       700000   -27430.839    293.80403    2626.4462   -30057.285   -29085.077    293.80403   -1228.3065    92345.414   0.97182764     568.3887 
   58000       705000   -27497.556    291.37822    2604.7609   -30102.317   -29183.148    291.37822   -1251.5872    92345.414   0.97182764    572.84499 
   58500       710000   -27474.701    296.08898    2646.8724   -30121.574   -28690.829    296.08898   -903.00058    92345.414   0.97182764     577.6292 
   59000       715000   -27646.672    283.42264    2533.6424   -30180.314   -29069.114    283.42264   -1056.1938    92345.414   0.97182764    582.32811 
   59500       720000   -27482.469     292.5929    2615.6194   -30098.089   -28993.417     292.5929   -1121.9105    92345.414   0.97182764    586.87695 
   60000       725000   -27543.924    290.73561    2599.0162    -30142.94   -29478.981    290.73561   -1436.8212    92345.414   0.97182764    591.08915 
   60500       730000   -27522.917    289.93839    2591.8895   -30114.806   -29081.979    289.93839   -1157.6363    92345.414   0.97182764    595.45824 
   61000       735000   -27477.398    290.40177    2596.0319    -30073.43   -28742.352    290.40177   -939.25493    92345.414   0.97182764    601.99052 
   61500       740000   -27557.911    289.94844    2591.9794    -30149.89   -29143.861    289.94844   -1177.6014    92345.414   0.97182764    607.24792 
   62000       745000   -27561.577    296.79747     2653.206   -30214.783   -29409.318    296.79747   -1371.9861    92345.414   0.97182764    612.16608 
   62500       750000    -27595.26    288.93888    2582.9545   -30178.214   -29327.025    288.93888   -1285.8722    92345.414   0.97182764    616.30103 
   63000       755000   -27497.596    292.82042    2617.6533   -30115.249   -28611.275    292.82042    -826.9301    92345.414   0.97182764    620.48713 
   63500       760000   -27634.356    287.36401     2568.876   -30203.232   -29175.017    287.36401   -1143.9736    92345.414   0.97182764    624.66428 
   64000       765000   -27697.342    294.01623    2628.3432   -30325.686   -29714.443    294.01623   -1497.7394    92345.414   0.97182764    629.15745 
   64500       770000   -27603.084    288.64234    2580.3036   -30183.387   -28746.554    288.64234   -849.05118    92345.414   0.97182764    633.41982 
   65000       775000   -27562.553    288.09516    2575.4121   -30137.965   -28998.079    288.09516   -1065.9081    92345.414   0.97182764     637.7329 
   65500       780000    -27606.84    287.50719    2570.1559   -30176.996   -29373.724    287.50719   -1311.9486    92345.414   0.97182764    643.69031 
   66000       785000   -27696.881    290.19474    2594.1812   -30291.063   -29685.857    290.19474   -1476.8563    92345.414   0.97182764    647.82193 
   66500       790000   -27589.903     291.7706    2608.2685   -30198.171   -29038.237     291.7706   -1075.4184    92345.414   0.97182764    652.13989 
   67000       795000    -27581.89    287.14937    2566.9573   -30148.847   -29584.067    287.14937   -1486.6589    92345.414   0.97182764    656.29199 
   67500       800000   -27724.622    282.84875     2528.512   -30253.134   -29419.453    282.84875   -1258.4474    92345.414   0.97182764    660.64678 
   68000       805000   -27509.121    293.36982    2622.5647   -30131.685   -29094.422    293.36982   -1177.1194    92345.414   0.97182764    664.79326 
   68500       810000   -27653.907    283.89738    2537.8863   -30191.793   -29082.626    283.89738   -1060.8537    92345.414   0.97182764    669.05109 
   69000       815000    -27705.46    281.07242    2512.6326   -30218.093    -29197.09    281.07242   -1107.5666    92345.414   0.97182764      673.257 
   69500       820000   -27600.933    289.78578    2590.5253   -30191.458   -29193.199    289.78578   -1182.2911    92345.414   0.97182764    678.85834 
   70000       825000   -27717.065    284.99384     2547.688   -30264.753   -29270.656    284.99384   -1153.5741    92345.414   0.97182764     683.2486 
   70500       830000   -27739.944     283.1249    2530.9807   -30270.925   -29163.356     283.1249   -1056.9131    92345.414   0.97182764    687.69509 
   71000       835000   -27666.173    288.88926    2582.5109   -30248.684   -29178.782    288.88926   -1123.1439    92345.414   0.97182764    692.39438 
   71500       840000    -27698.16    286.94927    2565.1685   -30263.329   -29226.544    286.94927   -1134.8571    92345.414   0.97182764    697.24094 
   72000       845000   -27631.057    281.76869    2518.8569   -30149.914   -29335.149    281.76869    -1265.324    92345.414   0.97182764    701.76742 
   72500       850000   -27582.192    288.77379    2581.4786   -30163.671   -29266.934    288.77379    -1250.956    92345.414   0.97182764     706.4624 
   73000       855000   -27693.413    283.59346    2535.1694   -30228.583   -29639.003    283.59346   -1444.6415    92345.414   0.97182764    711.04519 
   73500       860000    -27803.81    284.13116    2539.9761   -30343.786   -28947.343    284.13116   -849.09676    92345.414   0.97182764    715.40285 
   74000       865000   -27710.098     281.0843    2512.7388   -30222.837   -29066.616     281.0843   -1007.2431    92345.414   0.97182764    719.71793 
   74500       870000   -27759.314    284.01926    2538.9758    -30298.29   -29414.105    284.01926   -1228.7174    92345.414   0.97182764    724.40911 
   75000       875000   -27844.258    282.13162    2522.1013   -30366.359   -29234.726    282.13162    -1032.452    92345.414   0.97182764    729.05612 
   75500       880000   -27820.836    277.13168    2477.4046   -30298.241   -29263.928    277.13168    -1071.526    92345.414   0.97182764    733.59016 
   76000       885000   -27719.134    288.88902    2582.5088   -30301.643   -29294.917    288.88902   -1170.0516    92345.414   0.97182764    738.03352 
   76500       890000   -27702.142    287.01063    2565.7169   -30267.859   -29120.085    287.01063   -1052.8528    92345.414   0.97182764     742.3648 
   77000       895000   -27844.157    282.68523    2527.0503   -30371.208    -29449.71    282.68523   -1192.1569    92345.414   0.97182764    746.88102 
   77500       900000   -27771.553    284.69849    2545.0477     -30316.6   -29287.111    284.69849   -1125.3343    92345.414   0.97182764    751.41929 
   78000       905000   -27847.179    281.36471    2515.2456   -30362.424   -29151.787    281.36471   -968.69883    92345.414   0.97182764    755.90489 
   78500       910000   -27897.522    272.94741    2439.9995   -30337.522   -29402.354    272.94741    -1117.369    92345.414   0.97182764     760.3624 
   79000       915000   -27949.259    278.49345    2489.5781   -30438.837   -29382.797    278.49345   -1064.4322    92345.414   0.97182764    764.77192 
   79500       920000   -27855.529    282.45967    2525.0339   -30380.563   -29267.918    282.45967   -1048.7287    92345.414   0.97182764      769.445 
   80000       925000   -27887.955    281.84577     2519.546   -30407.501   -29829.981    281.84577   -1441.9953    92345.414   0.97182764    773.89867 
   80500       930000   -27870.012    277.37889    2479.6146   -30349.627   -29775.815    277.37889   -1415.0987    92345.414   0.97182764    778.31306 
   81000       935000   -27967.215    269.11966    2405.7815   -30372.996   -29825.781    269.11966   -1380.0243    92345.414   0.97182764    783.11879 
   81500       940000   -27938.581    269.68948    2410.8754   -30349.456   -29567.919    269.68948   -1209.8175    92345.414   0.97182764     787.5505 
   82000       945000   -27818.655    287.54522     2570.496   -30389.151   -29629.748    287.54522   -1344.7744    92345.414   0.97182764     792.1565 
   82500       950000   -27971.263    278.97271    2493.8624   -30465.126   -30049.619    278.97271   -1543.2224    92345.414   0.97182764    796.63007 
   83000       955000   -27832.924    276.27527    2469.7488   -30302.672    -29625.71    276.27527   -1331.1819    92345.414   0.97182764    801.05809 
   83500       960000   -27978.916    273.77112    2447.3631   -30426.279   -29929.117    273.77112   -1448.0654    92345.414   0.97182764    805.47438 
   84000       965000    -27901.82     273.3879    2443.9372   -30345.757   -29432.121     273.3879   -1136.2805    92345.414   0.97182764    810.13704 
   84500       970000   -28007.853    272.12567    2432.6537   -30440.507   -29679.127    272.12567   -1240.9557    92345.414   0.97182764    814.94011 
   85000       975000   -27950.114      279.611    2499.5684   -30449.682   -29642.469      279.611   -1256.6095    92345.414   0.97182764    819.02241 
   85500       980000   -28111.376    266.52788    2382.6125   -30493.989   -29498.865    266.52788   -1030.2397    92345.414   0.97182764     822.9771 
   86000       985000   -27996.563    276.05163    2467.7495   -30464.313   -29598.014    276.05163   -1189.1108    92345.414   0.97182764    827.11482 
   86500       990000   -27906.359     279.1835    2495.7468   -30402.106   -29991.794     279.1835   -1548.4797    92345.414   0.97182764    831.14181 
   87000       995000    -28055.21    272.44829    2435.5377   -30490.748   -29760.479    272.44829   -1266.1975    92345.414   0.97182764    835.07098 
   87500      1000000     -27902.2    280.28647    2505.6067   -30407.807   -29725.111    280.28647   -1353.5496    92345.414   0.97182764    838.96244 
   88000      1005000   -27885.878     281.1452    2513.2833   -30399.162   -29482.384     281.1452   -1185.4391    92345.414   0.97182764    843.02764 
   88500      1010000   -28050.391    264.88646    2367.9391    -30418.33   -30241.265    264.88646     -1626.77    92345.414   0.97182764     846.9497 
   89000      1015000   -28063.594    269.99907     2413.643   -30477.237   -29786.045    269.99907   -1278.9558    92345.414   0.97182764    851.00223 
   89500      1020000   -27991.165    278.47185     2489.385    -30480.55   -29739.919    278.47185   -1298.4871    92345.414   0.97182764    854.95685 
   90000      1025000   -28061.115    269.18372    2406.3542   -30467.469   -30034.655    269.18372   -1465.3951    92345.414   0.97182764    858.84282 
   90500      1030000   -28161.551    272.83935    2439.0335   -30600.585   -29578.261    272.83935   -1051.9373    92345.414   0.97182764    862.80963 
   91000      1035000   -28027.701    275.28489    2460.8953   -30488.597   -30317.897    275.28489   -1700.5182    92345.414   0.97182764    866.86692 
   91500      1040000    -28120.91     265.4878    2373.3147   -30494.224   -29472.797     265.4878    -1003.805    92345.414   0.97182764    870.80881 
   92000      1045000   -28088.367    272.67072    2437.5261   -30525.893   -30253.921    272.67072    -1607.969    92345.414   0.97182764    875.02462 
   92500      1050000   -28058.826    275.49783    2462.7989   -30521.625   -29339.633    275.49783   -951.02667    92345.414   0.97182764    878.91424 
   93000      1055000   -28002.107    275.63575    2464.0318   -30466.139   -29684.718    275.63575   -1249.3735    92345.414   0.97182764    882.77742 
   93500      1060000   -28115.482    269.27325    2407.1546   -30522.637    -29997.18    269.27325   -1397.2005    92345.414   0.97182764    886.81187 
   94000      1065000    -28047.86    275.28171    2460.8669   -30508.727   -29440.555    275.28171   -1034.1057    92345.414   0.97182764      890.751 
   94500      1070000   -28174.745    269.00747    2404.7786   -30579.523   -29340.003    269.00747   -865.22857    92345.414   0.97182764    894.69475 
   95000      1075000   -28067.273     271.6984    2428.8341   -30496.107   -29813.141     271.6984   -1296.3436    92345.414   0.97182764    898.65895 
   95500      1080000   -28173.288    268.58366    2400.9901   -30574.278   -29817.794    268.58366   -1221.0808    92345.414   0.97182764    902.70501 
   96000      1085000   -28111.012    265.78528    2375.9741   -30486.986   -30245.374    265.78528   -1584.8085    92345.414   0.97182764    906.69519 
   96500      1090000   -28176.386    267.38954    2390.3152   -30566.701   -29874.645    267.38954   -1260.9934    92345.414   0.97182764    910.75639 
   97000      1095000   -28228.219     271.7299    2429.1157   -30657.335   -29890.999     271.7299    -1234.649    92345.414   0.97182764    915.03913 
   97500      1100000   -28138.478    269.51849    2409.3469   -30547.825    -29783.97    269.51849   -1221.8124    92345.414   0.97182764    918.90838 
   98000      1105000   -28162.422     262.5648    2347.1847   -30509.607   -30354.294     262.5648   -1627.5106    92345.414   0.97182764    922.83034 
   98500      1110000   -28242.469    264.39511    2363.5467   -30606.015   -29812.139    264.39511   -1165.5136    92345.414   0.97182764     926.6125 
   99000      1115000   -28043.789    273.92993    2448.7827   -30492.572   -29687.656    273.92993   -1220.6056    92345.414   0.97182764    930.56173 
   99500      1120000   -28236.929    269.77849    2411.6711     -30648.6   -29872.612    269.77849    -1214.529    92345.414   0.97182764    934.47603 
  100000      1125000   -28065.032    275.58576    2463.5849   -30528.617   -30362.671    275.58576   -1706.0458    92345.414   0.97182764    938.41051 
  100500      1130000   -28096.458    265.79725     2376.081   -30472.539   -29635.881    265.79725    -1143.054    92345.414   0.97182764    942.24277 
  101000      1135000   -28231.083    268.03857    2396.1172     -30627.2     -29884.4    268.03857   -1227.6225    92345.414   0.97182764    946.08298 
  101500      1140000   -28151.733    267.98248    2395.6158   -30547.349   -29837.587    267.98248   -1251.7816    92345.414   0.97182764    949.92905 
  102000      1145000   -28297.523    267.87112    2394.6203   -30692.143    -29932.43    267.87112   -1213.9529    92345.414   0.97182764    953.97961 
  102500      1150000    -28324.82    266.18496     2379.547   -30704.367   -30412.286    266.18496   -1549.9877    92345.414   0.97182764    957.77391 
  103000      1155000   -28169.169    270.84763    2421.2286   -30590.398   -29718.034    270.84763   -1150.0648    92345.414   0.97182764    961.90284 
  103500      1160000   -28366.059     260.0717    2324.8978   -30690.957   -30166.372     260.0717   -1336.7706    92345.414   0.97182764    965.71579 
  104000      1165000   -28351.582      260.443     2328.217   -30679.799   -30135.691      260.443   -1324.7388    92345.414   0.97182764    969.73091 
  104500      1170000   -28277.185    267.17355    2388.3844   -30665.569   -29822.995    267.17355   -1147.7966    92345.414   0.97182764    973.72891 
  105000      1175000   -28315.545    265.64277    2374.7001   -30690.245   -30311.946    265.64277   -1482.3701    92345.414   0.97182764    977.56991 
  105500      1180000   -28362.545    265.32621    2371.8702   -30734.415   -29800.584    265.32621    -1067.774    92345.414   0.97182764    981.41347 
  106000      1185000   -28348.408    260.73152    2330.7962   -30679.204   -30073.218    260.73152   -1280.7075    92345.414   0.97182764    985.24207 
  106500      1190000   -28270.669    262.64897    2347.9372   -30618.606   -29840.554    262.64897   -1165.6727    92345.414   0.97182764    989.03335 
  107000      1195000   -28418.418    256.40183    2292.0912    -30710.51   -30076.761    256.40183   -1231.3545    92345.414   0.97182764      993.054 
  107500      1200000   -28370.201    261.24652       2335.4   -30705.601   -30054.071    261.24652   -1250.3089    92345.414   0.97182764    996.83029 
  108000      1205000   -28353.862    263.24388    2353.2553   -30707.117    -29891.96    263.24388   -1142.0708    92345.414   0.97182764    1000.8227 
  108500      1210000   -28390.248    260.62954    2329.8846   -30720.133   -30892.607    260.62954   -1858.0539    92345.414   0.97182764    1004.7029 
  109000      1215000   -28340.433    261.95358    2341.7208   -30682.154   -30092.446    261.95358   -1300.9064    92345.414   0.97182764    1008.9202 
  109500      1220000   -28410.285    261.51327    2337.7846   -30748.069   -29992.588    261.51327   -1174.8936    92345.414   0.97182764    1012.7502 
  110000      1225000   -28469.388    258.09769    2307.2512    -30776.64   -29992.268    258.09769   -1130.7705    92345.414   0.97182764    1016.6268 
  110500      1230000   -28399.051    264.26673    2362.3991    -30761.45   -30062.563    264.26673   -1235.1925    92345.414   0.97182764    1020.6576 
  111000      1235000   -28590.236    256.65787      2294.38   -30884.616   -30519.515    256.65787   -1432.5304    92345.414   0.97182764     1024.517 
  111500      1240000   -28448.257    258.04971    2306.8223   -30755.079   -30395.423    258.04971   -1445.8116    92345.414   0.97182764    1028.3886 
  112000      1245000   -28453.086    265.46037    2373.0695   -30826.156   -29933.332    265.46037   -1099.1138    92345.414   0.97182764    1032.2441 
  112500      1250000   -28618.726    253.86679    2269.4293   -30888.155   -30531.734    253.86679   -1420.4485    92345.414   0.97182764    1036.1479 
  113000      1255000   -28455.876    257.59874    2302.7909   -30758.667   -30198.071    257.59874   -1293.6165    92345.414   0.97182764     1040.103 
  113500      1260000   -28637.022    247.75611    2214.8032   -30851.825   -30312.435    247.75611   -1244.0298    92345.414   0.97182764     1044.076 
  114000      1265000   -28363.711    264.49781    2364.4647   -30728.176   -30154.621    264.49781   -1329.7883    92345.414   0.97182764    1047.9436 
  114500      1270000   -28444.054     256.5709    2293.6026   -30737.656   -30418.155     256.5709   -1465.8118    92345.414   0.97182764    1051.9117 
  115000      1275000   -28518.831    257.63899    2303.1507   -30821.982   -29800.013    257.63899   -951.30476    92345.414   0.97182764    1055.9101 
  115500      1280000   -28553.197    250.67689    2240.9134    -30794.11    -30323.71    250.67689   -1314.6432    92345.414   0.97182764    1059.7771 
  116000      1285000   -28666.812    255.82727     2286.955   -30953.767   -30485.292    255.82727   -1350.2598    92345.414   0.97182764    1063.7096 
  116500      1290000   -28550.564    257.66948    2303.4233   -30853.988   -30006.657    257.66948   -1081.1793    92345.414   0.97182764    1067.4145 
  117000      1295000   -28608.661    254.91147    2278.7682   -30887.429   -30790.772    254.91147   -1620.2631    92345.414   0.97182764    1071.3258 
  117500      1300000   -28543.169    255.68657    2285.6972   -30828.866    -30316.09    255.68657   -1316.4311    92345.414   0.97182764    1075.2336 
  118000      1305000   -28616.444    252.81202    2260.0003   -30876.445    -30071.39    252.81202   -1080.3282    92345.414   0.97182764    1079.0126 
  118500      1310000   -28531.332    256.13519    2289.7075    -30821.04   -30518.786    256.13519   -1475.7259    92345.414   0.97182764    1083.0598 
  119000      1315000   -28620.607    256.45143    2292.5346   -30913.141   -30510.164    256.45143   -1403.0363    92345.414   0.97182764    1086.9488 
  119500      1320000   -28600.697    256.19843    2290.2729    -30890.97   -29847.992    256.19843   -926.14289    92345.414   0.97182764    1090.7183 
  120000      1325000   -28523.864    253.39444    2265.2068   -30789.071   -30869.517    253.39444   -1741.6969    92345.414   0.97182764     1094.583 
  120500      1330000   -28752.423    250.95961    2243.4407   -30995.863   -30184.958    250.95961   -1063.6879    92345.414   0.97182764    1098.4671 
  121000      1335000   -28710.702    255.21286    2281.4625   -30992.165   -29987.438    255.21286   -948.00296    92345.414   0.97182764    1102.1674 
  121500      1340000   -28636.804    252.52778    2257.4593   -30894.263    -29971.14    252.52778   -990.77253    92345.414   0.97182764    1105.9293 
  122000      1345000   -28704.207    249.67021    2231.9142   -30936.121   -30518.337    249.67021   -1347.0301    92345.414   0.97182764    1110.1058 
  122500      1350000   -28764.161    249.15633    2227.3204   -30991.482   -30620.118    249.15633   -1378.0867    92345.414   0.97182764    1114.1403 
  123000      1355000   -28685.949    244.56045    2186.2358   -30872.185   -30574.804    244.56045   -1402.5144    92345.414   0.97182764         1118 
  123500      1360000   -28670.128    251.98485    2252.6058   -30922.734   -30079.537    251.98485    -1046.516    92345.414   0.97182764    1121.8325 
  124000      1365000   -28710.502    244.52979    2185.9617   -30896.464   -30634.788    244.52979   -1428.8232    92345.414   0.97182764    1125.6184 
  124500      1370000   -28735.309    245.16829    2191.6696   -30926.979   -30752.113    245.16829   -1497.5194    92345.414   0.97182764    1129.4618 
  125000      1375000    -28793.68    251.88884    2251.7475   -31045.427   -30599.973    251.88884   -1341.2106    92345.414   0.97182764    1133.2829 
  125500      1380000   -28719.604    244.15983    2182.6544   -30902.259   -30353.917    244.15983   -1213.5116    92345.414   0.97182764    1137.1092 
  126000      1385000   -28738.424    249.82125    2233.2644   -30971.689   -30229.346    249.82125   -1107.0405    92345.414   0.97182764    1141.0545 
  126500      1390000   -28870.702    243.02945    2172.5495   -31043.251   -31089.064    243.02945   -1647.1805    92345.414   0.97182764    1144.7106 
  127000      1395000   -28828.855    251.30282    2246.5088   -31075.364   -30145.692    251.30282   -977.77963    92345.414   0.97182764    1148.5347 
  127500      1400000    -28776.44    249.84649      2233.49    -31009.93   -30212.032    249.84649   -1065.9575    92345.414   0.97182764    1152.2683 
  128000      1405000   -28815.445    242.23031    2165.4056    -30980.85   -30346.769    242.23031   -1137.0404    92345.414   0.97182764    1156.1818 
  128500      1410000   -28755.899    246.84658    2206.6725   -30962.571   -30324.982    246.84658   -1165.0772    92345.414   0.97182764    1159.9407 
  129000      1415000   -28878.148    245.08834    2190.9548   -31069.103    -30643.71    245.08834   -1310.9672    92345.414   0.97182764    1163.6867 
  129500      1420000   -28763.337    246.19781    2200.8729    -30964.21   -30742.148    246.19781    -1469.309    92345.414   0.97182764    1167.4307 
  130000      1425000   -28834.985    245.45336    2194.2179   -31029.203   -30670.324    245.45336   -1362.7775    92345.414   0.97182764    1171.3018 
  130500      1430000   -28922.275    246.97249     2207.798   -31130.073    -30102.47    246.97249   -876.32022    92345.414   0.97182764    1174.9908 
  131000      1435000   -28858.691     246.3955    2202.6401   -31061.331   -30498.497     246.3955   -1217.5907    92345.414   0.97182764      1178.84 
  131500      1440000   -28850.808    251.02778    2244.0501   -31094.859   -30612.492    251.02778   -1308.0872    92345.414   0.97182764    1182.6563 
  132000      1445000   -28932.969    248.59044    2222.2617    -31155.23   -30915.618    248.59044   -1472.1591    92345.414   0.97182764    1186.2917 
  132500      1450000   -28863.809    241.69169    2160.5906   -31024.399    -30395.81    241.69169   -1137.5436    92345.414   0.97182764    1189.9622 
  133000      1455000   -28861.961     246.9109    2207.2475   -31069.208   -30552.722     246.9109   -1255.4262    92345.414   0.97182764    1193.6528 
  133500      1460000   -28946.829    245.51379    2194.7581   -31141.587   -30322.944    245.51379   -1021.7946    92345.414   0.97182764    1197.3643 
  134000      1465000    -28894.74    239.81668    2143.8291   -31038.569   -30820.016    239.81668    -1429.558    92345.414   0.97182764    1201.4107 
  134500      1470000   -28878.529    239.21314    2138.4338   -31016.962   -30598.095    239.21314   -1276.8144    92345.414   0.97182764    1205.0659 
  135000      1475000   -28985.523    242.59513    2168.6669    -31154.19   -30599.977    242.59513   -1198.7658    92345.414   0.97182764    1208.8017 
  135500      1480000   -28981.417    244.64089    2186.9548   -31168.371   -30926.908    244.64089   -1444.5682    92345.414   0.97182764     1212.567 
  136000      1485000   -29000.386    245.56259    2195.1943    -31195.58   -30632.427    245.56259   -1211.8247    92345.414   0.97182764    1216.9758 
  136500      1490000   -29046.633     241.8488    2161.9951   -31208.628   -30616.579     241.8488   -1165.7181    92345.414   0.97182764     1220.553 
  137000      1495000    -29054.27    245.28589    2192.7208   -31246.991   -30962.234    245.28589   -1416.7033    92345.414   0.97182764     1224.323 
  137500      1500000   -28988.274    239.55396    2141.4805   -31129.755    -30885.23    239.55396   -1408.5297    92345.414   0.97182764    1228.0985 
  138000      1505000       -29025    239.98916    2145.3709   -31170.371   -30629.336    239.98916   -1191.2529    92345.414   0.97182764    1231.8567 
  138500      1510000   -28985.181    241.61765    2159.9287   -31145.109   -30495.128    241.61765   -1121.1682    92345.414   0.97182764    1235.7028 
  139000      1515000   -29184.188    233.14308    2084.1708   -31268.359   -31019.907    233.14308   -1363.0597    92345.414   0.97182764    1239.4779 
  139500      1520000    -29162.22     236.4772    2113.9759   -31276.196   -30635.034     236.4772   -1093.5948    92345.414   0.97182764    1242.9991 
  140000      1525000   -29100.077    242.16419    2164.8145   -31264.892   -30685.122    242.16419    -1176.929    92345.414   0.97182764    1246.7561 
  140500      1530000   -29043.146    238.09053    2128.3982   -31171.544   -30344.368    238.09053   -966.18491    92345.414   0.97182764    1250.5093 
  141000      1535000   -29071.835    236.69042    2115.8821   -31187.717   -30805.634    236.69042   -1287.3828    92345.414   0.97182764    1254.1913 
  141500      1540000   -29026.129    251.16412    2245.2689   -31271.398     -30727.1    251.16412   -1263.0063    92345.414   0.97182764    1257.8392 
  142000      1545000   -29232.819    237.29903    2121.3227   -31354.142   -30967.551    237.29903   -1288.0749    92345.414   0.97182764    1261.8614 
  142500      1550000   -29132.768    239.97961    2145.2855   -31278.053   -30822.236    239.97961   -1254.4653    92345.414   0.97182764    1265.4525 
  143000      1555000   -29219.289    238.60246    2132.9746   -31352.263   -30440.888    238.60246   -907.06303    92345.414   0.97182764    1269.1654 
  143500      1560000   -29168.078    235.09344    2101.6059   -31269.684    -30982.74    235.09344   -1347.4246    92345.414   0.97182764    1272.7645 
  144000      1565000   -29118.753    232.69941    2080.2046   -31198.958   -31085.772    232.69941   -1460.5531    92345.414   0.97182764    1276.5675 
  144500      1570000   -29233.835     234.6078    2097.2645     -31331.1   -30688.737     234.6078   -1080.2954    92345.414   0.97182764     1280.178 
  145000      1575000   -29271.301    243.21687    2174.2249   -31445.526   -30620.976    243.21687   -1002.1621    92345.414   0.97182764    1283.7781 
  145500      1580000   -29236.665    232.22113     2075.929   -31312.594   -30731.292    232.22113   -1109.7919    92345.414   0.97182764    1288.3362 
  146000      1585000   -29157.538    235.04651    2101.1864   -31258.724   -30686.225    235.04651   -1135.0824    92345.414   0.97182764     1292.085 
  146500      1590000   -29275.327    233.69778    2089.1295   -31364.456    -30884.68    233.69778   -1194.9785    92345.414   0.97182764    1295.6529 
  147000      1595000   -29187.037    236.27927    2112.2066   -31299.244   -31053.883    236.27927   -1386.1724    92345.414   0.97182764     1299.399 
  147500      1600000   -29178.498    235.94379    2109.2075   -31287.705   -30784.705    235.94379   -1192.6427    92345.414   0.97182764    1303.0675 
  148000      1605000   -29179.844    237.14568    2119.9518   -31299.795   -31021.711    237.14568   -1367.6256    92345.414   0.97182764     1306.786 
  148500      1610000   -29213.334    234.85935    2099.5133   -31312.847   -31187.272    234.85935   -1465.6905    92345.414   0.97182764    1310.5504 
  149000      1615000   -29299.961    238.76457    2134.4238   -31434.385   -31041.638    238.76457   -1293.2314    92345.414   0.97182764    1314.1675 
  149500      1620000   -29229.836    232.63957    2079.6697   -31309.506   -30736.061    232.63957   -1118.4032    92345.414   0.97182764    1317.8185 
  150000      1625000   -29200.097     239.3895    2140.0103   -31340.107   -30756.391     239.3895   -1155.5817    92345.414   0.97182764    1321.5889 
  150500      1630000   -29365.927    230.91135    2064.2203   -31430.147   -31083.618    230.91135   -1275.4218    92345.414   0.97182764    1325.2107 
  151000      1635000   -29441.704    230.28336    2058.6064   -31500.311   -31255.045    230.28336   -1346.4437    92345.414   0.97182764    1328.8486 
  151500      1640000   -29445.567    228.90902    2046.3206   -31491.888   -30885.342    228.90902   -1069.0629    92345.414   0.97182764    1332.4286 
  152000      1645000     -29364.6    230.45813    2060.1688   -31424.769   -30626.541    230.45813   -937.01749    92345.414   0.97182764    1336.0083 
  152500      1650000   -29466.687    233.79215    2089.9731   -31556.661   -30471.649    233.79215   -746.20545    92345.414   0.97182764    1339.5811 
  153000      1655000   -29423.613    231.16517    2066.4894   -31490.102   -30709.681    231.16517   -954.93236    92345.414   0.97182764    1343.1664 
  153500      1660000   -29429.759     230.6184    2061.6015   -31491.361   -31010.567     230.6184   -1173.7835    92345.414   0.97182764    1346.7102 
  154000      1665000    -29457.76     234.9152    2100.0125   -31557.772   -30973.245     234.9152   -1125.2795    92345.414   0.97182764    1350.3456 
  154500      1670000   -29417.407    233.48493    2087.2267   -31504.633    -30782.45    233.48493   -1013.5735    92345.414   0.97182764    1353.8405 
  155000      1675000   -29593.177    229.06731    2047.7356   -31640.912   -30875.921    229.06731   -952.46429    92345.414   0.97182764    1357.6728 
  155500      1680000   -29420.301    230.85465    2063.7134   -31484.014   -31104.993    230.85465   -1250.9192    92345.414   0.97182764    1361.3074 
  156000      1685000   -29580.587    224.55265     2007.377   -31587.964   -30516.076    224.55265   -694.62051    92345.414   0.97182764    1364.8666 
  156500      1690000    -29543.25    228.17963    2039.8003    -31583.05   -30870.887    228.17963   -985.79873    92345.414   0.97182764    1368.5953 
  157000      1695000   -29522.534    230.43278    2059.9421   -31582.477   -30888.344    230.43278   -1014.1425    92345.414   0.97182764    1372.2351 
  157500      1700000   -29565.179    225.62217    2016.9379   -31582.117   -30978.336    225.62217   -1049.2988    92345.414   0.97182764    1375.7387 
  158000      1705000   -29646.437    223.54682    1998.3855   -31644.822   -31005.598    223.54682   -1009.2062    92345.414   0.97182764    1379.2065 
  158500      1710000   -29591.282    229.38055    2050.5358   -31641.818   -31250.348    229.38055   -1231.8912    92345.414   0.97182764    1382.8382 
  159000      1715000   -29697.494    225.66048    2017.2804   -31714.775   -31156.785    225.66048   -1083.5538    92345.414   0.97182764    1386.3383 
  159500      1720000   -29587.587    222.25333    1986.8223   -31574.409   -31051.566    222.25333   -1087.0355    92345.414   0.97182764    1389.8863 
  160000      1725000   -29585.476    221.13832    1976.8548   -31562.331   -30907.204    221.13832   -981.41117    92345.414   0.97182764     1393.451 
  160500      1730000    -29577.46    222.40339    1988.1638   -31565.624   -31137.007    222.40339   -1157.9963    92345.414   0.97182764    1397.1607 
  161000      1735000   -29547.971    228.13418    2039.3939   -31587.365   -30961.785    228.13418   -1049.7872    92345.414   0.97182764    1400.6626 
  161500      1740000   -29623.929    221.92625    1983.8985   -31607.828   -31157.679    221.92625   -1138.8418    92345.414   0.97182764    1404.1584 
  162000      1745000   -29640.206    227.40243    2032.8525   -31673.058   -31058.254    227.40243   -1052.9305    92345.414   0.97182764    1407.6039 
  162500      1750000   -29718.809    222.54693     1989.447   -31708.256   -31368.858    222.54693   -1225.1966    92345.414   0.97182764     1411.409 
  163000      1755000   -29799.458     220.0731    1967.3324   -31766.791   -30595.083     220.0731   -590.76812    92345.414   0.97182764    1414.9178 
  163500      1760000   -29676.088    222.21949    1986.5199   -31662.608   -31455.318    222.21949   -1321.1154    92345.414   0.97182764    1418.4779 
  164000      1765000   -29745.116    222.76401    1991.3876   -31736.504   -30962.598    222.76401   -904.00598    92345.414   0.97182764    1421.9933 
  164500      1770000   -29768.963    224.07267    2003.0863   -31772.049   -31191.825    224.07267    -1056.505    92345.414   0.97182764    1425.3761 
  165000      1775000   -29865.666    221.48779    1979.9789   -31845.645   -31316.829    221.48779   -1077.5188    92345.414   0.97182764    1428.8318 
  165500      1780000   -29706.648    220.28079    1969.1889   -31675.837   -31099.643    220.28079   -1034.3278    92345.414   0.97182764    1432.3865 
  166000      1785000   -29852.967    221.46216    1979.7498   -31832.717   -31173.239    221.46216   -980.32963    92345.414   0.97182764    1435.8894 
  166500      1790000   -29934.799    221.10627    1976.5683   -31911.367   -30953.821    221.10627   -756.64575    92345.414   0.97182764    1439.2103 
  167000      1795000   -29840.162    222.97675    1993.2894   -31833.451   -31228.275    222.97675   -1030.7032    92345.414   0.97182764    1442.7294 
  167500      1800000   -29791.071    222.89389    1992.5486    -31783.62   -31130.121    222.89389   -994.27279    92345.414   0.97182764    1446.1666 
  168000      1805000   -29833.832    221.86069    1983.3124   -31817.144   -31143.891    221.86069   -972.74682    92345.414   0.97182764    1449.6951 
  168500      1810000   -29862.784     224.2436    2004.6143   -31867.399   -31244.624     224.2436   -1026.0452    92345.414   0.97182764    1453.1565 
  169000      1815000   -29889.728    219.29931    1960.4151   -31850.143   -31337.971    219.29931   -1075.3508    92345.414   0.97182764    1456.5576 
  169500      1820000   -30002.787     217.5498    1944.7754   -31947.562   -30966.556     217.5498   -715.61887    92345.414   0.97182764    1459.8997 
  170000      1825000   -29886.765    220.61917    1972.2139   -31858.979   -31421.308    220.61917   -1139.4309    92345.414   0.97182764    1463.2642 
  170500      1830000   -29819.894    221.00227    1975.6386   -31795.533   -31285.143    221.00227    -1087.978    92345.414   0.97182764    1466.6522 
  171000      1835000   -29803.612     216.7588    1937.7043   -31741.316   -31025.497     216.7588   -907.27598    92345.414   0.97182764    1470.0998 
  171500      1840000    -29999.95    218.49161    1953.1947   -31953.145   -31436.299    218.49161   -1066.5193    92345.414   0.97182764    1473.4365 
  172000      1845000   -29905.912    219.71064    1964.0922   -31870.005   -31363.762    219.71064   -1082.4839    92345.414   0.97182764    1476.8647 
  172500      1850000   -29884.094    222.07151     1985.197   -31869.291   -31059.591    222.07151   -872.83121    92345.414   0.97182764    1480.2819 
  173000      1855000   -29976.952    216.67523    1936.9572   -31913.909    -31367.27    216.67523   -1032.3408    92345.414   0.97182764    1483.5944 
  173500      1860000   -30001.409    213.56361    1909.1411    -31910.55   -31388.742    213.56361   -1030.1242    92345.414   0.97182764    1487.0598 
  174000      1865000   -29944.769     219.9654    1966.3696   -31911.138   -31122.017     219.9654   -874.13187    92345.414   0.97182764    1490.4186 
  174500      1870000   -30011.211    212.60057     1900.532   -31911.743   -31138.549    212.60057   -837.07243    92345.414   0.97182764    1493.7742 
  175000      1875000   -30056.984    213.44792    1908.1068    -31965.09   -30880.212    213.44792   -611.26412    92345.414   0.97182764    1497.1686 
  175500      1880000   -30028.575    217.53522    1944.6451    -31973.22   -31568.259    217.53522   -1143.2478    92345.414   0.97182764    1500.5305 
  176000      1885000   -29937.942    219.98454    1966.5407   -31904.483   -31230.726    219.98454   -959.91955    92345.414   0.97182764    1504.1721 
  176500      1890000   -30171.803    213.05989    1904.6381   -32076.441   -31133.259    213.05989   -713.90169    92345.414   0.97182764    1507.5544 
  177000      1895000   -30111.548    218.61507    1954.2983   -32065.846   -31317.671    218.61507   -895.57188    92345.414   0.97182764    1511.0998 
  177500      1900000   -30186.342    214.96227    1921.6443   -32107.987   -31345.276    214.96227     -860.533    92345.414   0.97182764    1514.5771 
  178000      1905000   -30215.836    210.84023    1884.7956   -32100.631   -31079.659    210.84023   -641.40697    92345.414   0.97182764    1518.0442 
  178500      1910000   -30106.815    216.13751    1932.1503   -32038.965   -31124.401    216.13751   -755.57883    92345.414   0.97182764    1521.2793 
  179000      1915000   -30125.547     214.7604    1919.8397   -32045.386   -30970.231     214.7604    -627.1961    92345.414   0.97182764    1524.6157 
  179500      1920000   -30224.077    211.69876    1892.4704   -32116.548   -31166.665    211.69876   -699.89149    92345.414   0.97182764    1527.9179 
  180000      1925000   -29995.279    225.07967    2012.0883   -32007.367   -31071.694    225.07967   -799.26095    92345.414   0.97182764    1531.2499 
  180500      1930000    -30202.82    210.98125    1886.0562   -32088.876   -31097.638    210.98125   -664.42174    92345.414   0.97182764    1534.6108 
  181000      1935000   -30188.737    213.88559    1912.0194   -32100.757   -31216.038    213.88559   -762.79252    92345.414   0.97182764    1538.2498 
  181500      1940000   -30291.992     208.3284    1862.3412   -32154.333   -31566.427     208.3284   -946.29459    92345.414   0.97182764    1541.5159 
  182000      1945000   -30272.144     212.9991    1904.0947   -32176.239   -30721.854     212.9991   -333.91888    92345.414   0.97182764    1544.7733 
  182500      1950000   -30361.704    211.84568    1893.7837   -32255.488    -31540.57    211.84568   -875.33236    92345.414   0.97182764    1548.0987 
  183000      1955000   -30279.315    208.54729     1864.298   -32143.613   -31174.228    208.54729   -664.49178    92345.414   0.97182764    1551.3627 
  183500      1960000   -30369.071    207.48141    1854.7696    -32223.84   -30995.608    207.48141   -465.21684    92345.414   0.97182764    1554.5436 
  184000      1965000   -30253.567    214.26601    1915.4201   -32168.987   -31296.102    214.26601   -774.10468    92345.414   0.97182764    1557.9973 
  184500      1970000   -30335.009    212.69884    1901.4105   -32236.419   -31266.916    212.69884   -691.96055    92345.414   0.97182764    1561.6147 
  185000      1975000   -30412.796    208.41122    1863.0815   -32275.878   -31461.104    208.41122   -778.39074    92345.414   0.97182764    1565.0416 
  185500      1980000   -30399.376     206.2427    1843.6962   -32243.072   -31531.858     206.2427   -840.89192    92345.414   0.97182764    1568.3932 
  186000      1985000   -30333.025    207.94199    1858.8869   -32191.912   -31435.725    207.94199   -818.77732    92345.414   0.97182764    1571.9091 
  186500      1990000   -30402.272    208.23363     1861.494   -32263.766   -31336.959    208.23363   -694.02435    92345.414   0.97182764    1575.2643 
  187000      1995000   -30415.874    211.36151    1889.4555   -32305.329   -31335.621    211.36151   -682.93217    92345.414   0.97182764    1578.5956 
  187500      2000000   -30522.463    208.27017    1861.8206   -32384.283   -31381.263    208.27017   -637.67776    92345.414   0.97182764    1581.8774 
  188000      2005000   -30480.335    209.13082    1869.5143   -32349.849   -31069.919    209.13082    -437.7788    92345.414   0.97182764    1585.0637 
  188500      2010000   -30476.584    205.86211    1840.2939   -32316.878   -31197.215    205.86211   -535.08399    92345.414   0.97182764    1588.2696 
  189000      2015000   -30543.912    205.35549     1835.765   -32379.677   -31911.672    205.35549   -1015.5909    92345.414   0.97182764    1591.4892 
  189500      2020000   -30506.562    204.07489    1824.3172   -32330.879   -31613.838    204.07489   -822.17525    92345.414   0.97182764    1595.2401 
  190000      2025000   -30571.071    207.13182    1851.6444   -32422.716   -31215.492    207.13182   -478.49614    92345.414   0.97182764    1598.5579 
  190500      2030000   -30461.893    205.54775    1837.4837   -32299.377   -31480.155    205.54775   -756.08066    92345.414   0.97182764    1601.7193 
  191000      2035000   -30458.843    207.65598    1856.3301   -32315.173   -31412.398    207.65598   -708.03525    92345.414   0.97182764    1604.8907 
  191500      2040000   -30564.203    202.41333    1809.4637   -32373.667   -31506.873    202.41333   -699.95253    92345.414   0.97182764    1608.1733 
  192000      2045000   -30560.864    211.45789    1890.3171   -32451.181   -31339.992    211.45789   -578.51904    92345.414   0.97182764    1611.3884 
  192500      2050000   -30660.357    203.03826    1815.0502   -32475.407    -31395.87    203.03826   -546.13394    92345.414   0.97182764    1614.4657 
  193000      2055000   -30599.908     203.2646    1817.0736   -32416.981   -31735.468     203.2646    -843.1774    92345.414   0.97182764    1617.6229 
  193500      2060000   -30773.768    201.25545    1799.1129   -32572.881   -31907.095    201.25545   -841.51945    92345.414   0.97182764     1620.862 
  194000      2065000   -30660.367    203.30512    1817.4358   -32477.803   -31192.822    203.30512   -395.35891    92345.414   0.97182764     1624.192 
  194500      2070000   -30643.694    199.86501    1786.6832   -32430.377   -31104.186    199.86501    -341.9251    92345.414   0.97182764    1627.2812 
  195000      2075000   -30616.153    206.42986    1845.3693   -32461.522   -31029.085    206.42986   -306.61089    92345.414   0.97182764    1630.4949 
  195500      2080000   -30732.616     201.6189     1802.362   -32534.978   -31439.381     201.6189   -524.78751    92345.414   0.97182764     1633.714 
  196000      2085000   -30719.371    204.66651    1829.6059   -32548.977   -31265.601    204.66651   -405.58779    92345.414   0.97182764    1636.8884 
  196500      2090000   -30787.722    202.66399    1811.7045   -32599.426   -31266.834    202.66399   -355.75096    92345.414   0.97182764    1640.0804 
  197000      2095000   -30800.346    199.40983    1782.6141    -32582.96   -31181.639    199.40983   -283.11791    92345.414   0.97182764    1643.1997 
  197500      2100000   -30786.248    206.24601    1843.7258   -32629.974   -30665.706    206.24601    89.505185    92345.414   0.97182764    1646.3752 
  198000      2105000   -30712.864    202.53823    1810.5802   -32523.444    -30990.47    202.53823   -206.12831    92345.414   0.97182764    1649.4613 
  198500      2110000   -30809.638    199.65792    1784.8319    -32594.47   -31162.411    199.65792   -261.94153    92345.414   0.97182764    1652.7562 
  199000      2115000   -30775.169    203.76973    1821.5892   -32596.758    -30960.24    203.76973   -137.41937    92345.414   0.97182764    1655.8984 
  199500      2120000   -30920.684    201.76373    1803.6566   -32724.341   -31054.068    201.76373    -99.04049    92345.414   0.97182764    1659.0801 
  200000      2125000   -30915.291    199.96328    1787.5616   -32702.853    -31265.79    199.96328   -260.25277    92345.414   0.97182764    1662.2507 
  200500      2130000    -30903.53    199.30617    1781.6874   -32685.217   -31250.175    199.30617   -257.39174    92345.414   0.97182764    1665.4246 
  201000      2135000   -31014.575    194.57281    1739.3738   -32753.949   -31239.764    194.57281   -167.20727    92345.414   0.97182764    1668.5437 
  201500      2140000   -30995.018    194.09057    1735.0628   -32730.081    -31301.81    194.09057   -227.79921    92345.414   0.97182764    1671.5442 
  202000      2145000   -30932.899    197.95627      1769.62   -32702.519   -31142.291    197.95627    -155.4781    92345.414   0.97182764    1674.5281 
  202500      2150000   -30930.049    202.72802    1812.2769   -32742.326   -31180.219    202.72802   -185.75612    92345.414   0.97182764    1677.5412 
  203000      2155000   -30944.093    202.42474    1809.5657   -32753.659   -30771.561    202.42474    128.10893    92345.414   0.97182764    1680.5853 
  203500      2160000   -31029.946    194.97808    1742.9966   -32772.943   -31259.108    194.97808   -170.15783    92345.414   0.97182764    1683.8142 
  204000      2165000   -31086.631     194.5829     1739.464   -32826.095   -31160.559     194.5829   -54.893529    92345.414   0.97182764    1686.8962 
  204500      2170000   -30994.914    194.86647    1741.9989   -32736.913   -31291.089    194.86647   -219.91557    92345.414   0.97182764    1690.1288 
  205000      2175000   -31009.212    193.03086    1725.5896   -32734.801   -31444.618    193.03086   -323.29875    92345.414   0.97182764    1693.2033 
  205500      2180000   -30990.852    197.56187    1766.0943   -32756.946   -31365.961    197.56187   -278.52629    92345.414   0.97182764    1696.2562 
  206000      2185000   -31048.093    197.82507    1768.4472    -32816.54   -31268.825    197.82507   -163.89793    92345.414   0.97182764    1699.2635 
  206500      2190000   -31055.137    194.30536    1736.9829    -32792.12   -31300.122    194.30536   -181.90637    92345.414   0.97182764    1702.3244 
  207000      2195000   -31092.972     194.0568    1734.7609   -32827.733   -31647.177     194.0568   -411.50851    92345.414   0.97182764    1705.3165 
[...]
  439000      4515000   -34547.662     41.25359    368.78438   -34916.446   -35481.862     41.25359   -693.66384    92345.414   0.97182764    2881.5128 
  439500      4520000   -34552.881    40.604359    362.98061   -34915.862   -35504.171    40.604359   -706.35227    92345.414   0.97182764    2883.6998 
  440000      4525000   -34550.601    39.955519    357.18034   -34907.781   -35571.092    39.955519   -757.73645    92345.414   0.97182764    2885.9016 
  440500      4530000   -34577.356     39.12084    349.71877   -34927.075    -35533.77     39.12084   -710.15744    92345.414   0.97182764    2888.6616 
  441000      4535000   -34581.947     38.50698     344.2312   -34926.178   -35580.482     38.50698   -741.43357    92345.414   0.97182764    2890.8976 
  441500      4540000   -34588.522    39.867287    356.39159   -34944.914   -35571.848    39.867287    -730.1405    92345.414   0.97182764    2893.0804 
  442000      4545000   -34582.461    39.102957     349.5589    -34932.02    -35608.25    39.102957   -761.67019    92345.414   0.97182764    2895.2914 
  442500      4550000   -34605.141    38.163391     341.1597   -34946.301   -35578.679    38.163391   -722.87251    92345.414   0.97182764    2897.5296 
  443000      4555000   -34609.685    38.203987     341.5226   -34951.208   -35593.841    38.203987   -730.75677    92345.414   0.97182764    2899.6908 
  443500      4560000   -34607.502     37.45035    334.78551   -34942.287   -35590.402     37.45035   -729.82393    92345.414   0.97182764    2901.8378 
  444000      4565000       -34607    38.610825    345.15952    -34952.16   -35600.557    38.610825   -737.73651    92345.414   0.97182764     2903.978 
  444500      4570000   -34614.908    37.608309    336.19757   -34951.105   -35651.072    37.608309    -769.3736    92345.414   0.97182764    2906.1522 
  445000      4575000   -34624.308    36.534312    326.59663   -34950.904   -35721.214    36.534312   -814.47595    92345.414   0.97182764    2908.3332 
  445500      4580000   -34636.461    35.758305    319.65955   -34956.121    -35769.42    35.758305   -841.24591    92345.414   0.97182764    2910.9998 
  446000      4585000   -34631.473    36.279974    324.32299   -34955.796   -35704.622    36.279974   -796.83594    92345.414   0.97182764     2913.193 
  446500      4590000   -34634.546    36.057588    322.33499   -34956.881   -35731.935    36.057588   -814.83464    92345.414   0.97182764     2915.353 
  447000      4595000   -34644.513     35.78541    319.90186   -34964.415   -35695.717     35.78541   -780.54102    92345.414   0.97182764    2917.3932 
  447500      4600000    -34663.31    34.835968    311.41437   -34974.724   -35730.952    34.835968   -792.74665    92345.414   0.97182764    2919.5914 
  448000      4605000   -34656.275    35.707369    319.20422   -34975.479   -35718.466    35.707369   -788.69936    92345.414   0.97182764    2921.7122 
  448500      4610000   -34657.453    35.025854    313.11185   -34970.565   -35715.289    35.025854   -785.46569    92345.414   0.97182764    2924.0513 
  449000      4615000   -34662.757    34.715058    310.33351   -34973.091     -35741.5    34.715058   -800.98929    92345.414   0.97182764    2926.2097 
  449500      4620000   -34688.118    33.479455    299.28789   -34987.405   -35750.518    33.479455   -788.85478    92345.414   0.97182764    2928.3825 
  450000      4625000   -34682.958    33.811323    302.25461   -34985.213   -35766.728    33.811323   -804.72182    92345.414   0.97182764    2930.4935 
  450500      4630000   -34693.816    32.775771    292.99734   -34986.813   -35734.537    32.775771   -772.75759    92345.414   0.97182764    2932.5672 
  451000      4635000   -34705.357    32.145818    287.36591   -34992.723   -35821.359    32.145818   -828.65495    92345.414   0.97182764    2934.7247 
  451500      4640000    -34709.33    32.555072    291.02442   -35000.355   -35737.341    32.555072   -763.31967    92345.414   0.97182764    2936.8349 
  452000      4645000   -34718.361    31.883763    285.02329   -35003.385   -35799.182    31.883763   -802.53224    92345.414   0.97182764    2939.0257 
  452500      4650000   -34706.916    32.725146    292.54479   -34999.461     -35804.5    32.725146    -814.9795    92345.414   0.97182764    2941.4406 
  453000      4655000   -34715.893     31.97871    285.87206   -35001.765   -35819.817     31.97871   -819.68671    92345.414   0.97182764    2943.6983 
  453500      4660000    -34733.66    30.922976    276.43438   -35010.094   -35811.996    30.922976   -800.68699    92345.414   0.97182764    2945.8873 
  454000      4665000   -34735.713     30.80901    275.41559   -35011.128   -35824.797     30.80901    -808.6678    92345.414   0.97182764    2948.1461 
  454500      4670000    -34734.54    30.799865    275.33384   -35009.874   -35813.945    30.799865   -801.48077    92345.414   0.97182764    2950.4786 
  455000      4675000   -34751.248    30.289387    270.77044   -35022.018   -35881.723    30.289387   -839.40185    92345.414   0.97182764    2952.6587 
  455500      4680000   -34747.815    29.987739    268.07388   -35015.889   -35906.008    29.987739    -859.9822    92345.414   0.97182764    2954.7039 
  456000      4685000   -34763.212    29.712753    265.61565   -35028.828   -35866.428    29.712753   -819.16121    92345.414   0.97182764    2956.8373 
  456500      4690000    -34759.94    28.944401    258.74701   -35018.687   -35863.245    28.944401   -819.22759    92345.414   0.97182764    2958.9183 
  457000      4695000   -34772.727    28.505551    254.82393   -35027.551   -35878.425    28.505551   -821.00441    92345.414   0.97182764    2961.0167 
  457500      4700000   -34772.032    29.207019    261.09467   -35033.126   -35877.219    29.207019   -820.62476    92345.414   0.97182764    2963.1838 
  458000      4705000   -34785.838    27.674498    247.39477   -35033.233   -35908.093    27.674498   -833.29782    92345.414   0.97182764    2965.3332 
  458500      4710000   -34789.777    27.510272    245.92668   -35035.704   -35892.306    27.510272    -818.6508    92345.414   0.97182764    2967.5318 
  459000      4715000   -34799.115    27.727962    247.87271   -35046.987   -35939.862    27.727962   -847.02925    92345.414   0.97182764    2969.5795 
  459500      4720000   -34798.448    27.949877    249.85651   -35048.304    -35962.18    27.949877   -864.09566    92345.414   0.97182764     2971.932 
  460000      4725000   -34812.035    26.962038    241.02578   -35053.061   -35976.624    26.962038   -864.73142    92345.414   0.97182764    2974.1629 
  460500      4730000    -34818.46    26.508192    236.96864   -35055.429   -36016.423    26.508192    -889.5123    92345.414   0.97182764     2976.254 
  461000      4735000   -34826.857    25.629678    229.11521   -35055.972   -36006.475    25.629678   -875.89113    92345.414   0.97182764    2978.4727 
  461500      4740000   -34832.645    25.315159    226.30358   -35058.948   -35960.098    25.315159   -837.15761    92345.414   0.97182764    2980.5306 
  462000      4745000   -34836.995     25.03657    223.81315   -35060.808   -36007.947     25.03657   -869.45663    92345.414   0.97182764    2982.7089 
  462500      4750000   -34838.452    24.995894    223.44953   -35061.902   -35989.875    24.995894   -854.95543    92345.414   0.97182764    2984.9016 
  463000      4755000   -34839.274    25.060472    224.02682     -35063.3   -36016.459    25.060472   -874.08494    92345.414   0.97182764     2986.967 
  463500      4760000   -34847.788    24.882331    222.43434   -35070.222    -36046.84    24.882331   -890.32143    92345.414   0.97182764    2989.0481 
  464000      4765000   -34860.518    24.042487    214.92659   -35075.444   -36011.574    24.042487   -854.68356    92345.414   0.97182764     2991.147 
  464500      4770000   -34869.139    23.479758    209.89611   -35079.035   -36095.406    23.479758   -910.52908    92345.414   0.97182764    2993.2951 
  465000      4775000    -34869.07    23.719523    212.03948    -35081.11   -36029.831    23.719523   -861.88948    92345.414   0.97182764    2995.3394 
  465500      4780000   -34887.041    22.320325    199.53142   -35086.573   -36047.022    22.320325   -861.31057    92345.414   0.97182764    2997.4914 
  466000      4785000   -34887.841    22.458123    200.76325   -35088.604   -36049.078    22.458123   -862.24328    92345.414   0.97182764    2999.6297 
  466500      4790000   -34886.954    22.504306     201.1761    -35088.13   -36036.068    22.504306   -853.24139    92345.414   0.97182764    3001.9854 
  467000      4795000   -34900.708    21.685994    193.86085   -35094.569   -36123.636    21.685994   -908.04959    92345.414   0.97182764     3004.105 
  467500      4800000   -34904.731    21.498547    192.18517   -35096.916   -36090.556    21.498547   -880.49976    92345.414   0.97182764     3006.221 
  468000      4805000   -34907.096    21.623468     193.3019   -35100.398   -36179.466    21.623468   -944.76194    92345.414   0.97182764    3008.2997 
  468500      4810000   -34918.529    20.641291    184.52178    -35103.05   -36108.048    20.641291    -883.2429    92345.414   0.97182764    3010.4776 
  469000      4815000     -34921.1     20.67251    184.80086   -35105.901   -36069.572     20.67251   -852.76496    92345.414   0.97182764    3012.5425 
  469500      4820000   -34929.412    20.406133    182.41959   -35111.832   -36149.758    20.406133    -906.1325    92345.414   0.97182764    3014.6421 
  470000      4825000   -34934.173    20.017196    178.94271   -35113.115   -36114.317    20.017196   -876.28225    92345.414   0.97182764    3016.7004 
  470500      4830000   -34934.709    19.934835    178.20645   -35112.916   -36219.396    19.934835   -953.90699    92345.414   0.97182764     3018.905 
  471000      4835000   -34941.538    19.540458    174.68094   -35116.219   -36178.158    19.540458   -918.21634    92345.414   0.97182764    3020.9861 
  471500      4840000   -34949.054    19.112461    170.85488   -35119.909    -36185.02    19.112461   -917.73076    92345.414   0.97182764    3023.0211 
  472000      4845000    -34954.93    19.195261    171.59506   -35126.525   -36206.111    19.195261   -929.02825    92345.414   0.97182764    3025.1117 
  472500      4850000   -34964.256     18.04327    161.29689   -35125.553   -36237.407     18.04327   -945.34133    92345.414   0.97182764    3027.1818 
  473000      4855000    -34966.03    18.054723    161.39928    -35127.43   -36159.462    18.054723   -886.14831    92345.414   0.97182764    3029.2568 
  473500      4860000   -34974.992    17.713139    158.34571   -35133.338   -36253.797    17.713139   -949.53921    92345.414   0.97182764    3031.9155 
  474000      4865000   -34974.909    17.765167    158.81081   -35133.719   -36182.665    17.765167   -896.78459    92345.414   0.97182764    3034.7428 
  474500      4870000   -34987.803    17.083047    152.71303   -35140.516   -36204.851    17.083047   -903.68383    92345.414   0.97182764    3038.0295 
  475000      4875000   -34991.851    16.935369    151.39288   -35143.244   -36283.569    16.935369    -959.1283    92345.414   0.97182764    3040.6263 
  475500      4880000   -35000.581    16.283447    145.56505   -35146.146   -36261.261    16.283447   -936.08175    92345.414   0.97182764    3042.7706 
  476000      4885000   -35005.339    15.973124    142.79093    -35148.13   -36264.885    15.973124   -935.23933    92345.414   0.97182764    3045.8454 
  476500      4890000   -35010.913    15.911735    142.24215   -35153.155   -36297.861    15.911735    -955.5863    92345.414   0.97182764    3048.6135 
  477000      4895000   -35016.966    15.515255    138.69784   -35155.664   -36295.403    15.515255    -949.2664    92345.414   0.97182764    3051.2654 
  477500      4900000   -35023.557    15.184013    135.73671   -35159.293   -36296.204    15.184013   -944.96723    92345.414   0.97182764    3054.1066 
  478000      4905000   -35028.601    14.798628    132.29159   -35160.892   -36362.419    14.798628   -990.38842    92345.414   0.97182764    3056.1915 
  478500      4910000   -35037.427    14.505089     129.6675   -35167.095   -36321.271    14.505089   -953.28136    92345.414   0.97182764    3058.2682 
  479000      4915000   -35041.942    14.090074    125.95751     -35167.9   -36320.264    14.090074   -949.18083    92345.414   0.97182764    3060.3718 
  479500      4920000   -35050.085    13.575539    121.35784   -35171.443   -36318.556    13.575539   -941.86608    92345.414   0.97182764    3062.6968 
  480000      4925000   -35052.134    13.579823    121.39614    -35173.53   -36349.662    13.579823   -963.44201    92345.414   0.97182764    3064.8309 
  480500      4930000   -35061.966    12.994661    116.16512   -35178.131   -36367.215    12.994661   -969.17447    92345.414   0.97182764     3066.946 
  481000      4935000   -35062.233    13.159435     117.6381   -35179.871   -36341.431    13.159435   -949.83145    92345.414   0.97182764    3069.0976 
  481500      4940000   -35072.672    12.359275    110.48511   -35183.157   -36379.433    12.359275   -970.29749    92345.414   0.97182764    3071.1865 
  482000      4945000   -35072.315     12.36834    110.56615   -35182.881   -36364.132     12.36834   -959.20146    92345.414   0.97182764    3073.3409 
  482500      4950000   -35083.685    11.663043    104.26119   -35187.946   -36390.382    11.663043   -970.25005    92345.414   0.97182764    3075.4621 
  483000      4955000    -35085.38    11.505006    102.84842   -35188.229     -36401.2    11.505006   -977.02406    92345.414   0.97182764    3077.6016 
  483500      4960000   -35095.848    11.127712    99.475617   -35195.324   -36415.062    11.127712   -979.54419    92345.414   0.97182764     3079.765 
  484000      4965000   -35101.653    10.790435    96.460544   -35198.113   -36409.174    10.790435   -970.86224    92345.414   0.97182764      3081.86 
  484500      4970000   -35109.526    10.402191    92.989857   -35202.516   -36431.591    10.402191   -981.66147    92345.414   0.97182764    3084.0101 
  485000      4975000   -35113.311    10.069999    90.020243   -35203.331   -36476.228    10.069999   -1011.9947    92345.414   0.97182764    3086.1403 
  485500      4980000   -35118.855    9.9272639    88.744273     -35207.6    -36465.05    9.9272639   -999.57755    92345.414   0.97182764    3088.1957 
  486000      4985000    -35125.19    9.4008951    84.038826   -35209.229   -36441.535    9.4008951    -977.4138    92345.414   0.97182764     3090.395 
  486500      4990000   -35131.259    8.9982381    80.439294   -35211.698   -36469.079    8.9982381   -993.36002    92345.414   0.97182764    3092.4847 
  487000      4995000   -35140.099    8.5976418    76.858183   -35216.958   -36480.262    8.5976418   -995.09874    92345.414   0.97182764    3094.5569 
  487500      5000000   -35143.545    8.5308816    76.261384   -35219.806   -36494.377    8.5308816   -1003.0215    92345.414   0.97182764    3096.6517 
  488000      5005000   -35148.918    8.1748418    73.078584   -35221.997   -36487.918    8.1748418   -994.23553    92345.414   0.97182764     3098.787 
  488500      5010000   -35155.947    7.6406206    68.302941    -35224.25    -36501.72    7.6406206   -999.26478    92345.414   0.97182764    3100.8198 
  489000      5015000   -35161.192    7.5290085     67.30519   -35228.497    -36551.25    7.5290085   -1032.1477    92345.414   0.97182764    3102.9141 
  489500      5020000   -35167.872    7.0856664    63.341955   -35231.214   -36534.182    7.0856664   -1014.5141    92345.414   0.97182764    3105.0214 
  490000      5025000   -35173.088    6.8466829    61.205575   -35234.294   -36543.119    6.8466829   -1017.2765    92345.414   0.97182764    3107.0244 
  490500      5030000   -35179.547    6.4823064    57.948249   -35237.495   -36552.468    6.4823064   -1019.4231    92345.414   0.97182764    3109.2665 
  491000      5035000   -35185.255    6.1927711    55.359964   -35240.615   -36570.399    6.1927711    -1028.499    92345.414   0.97182764    3111.3121 
  491500      5040000   -35191.927    5.8908375    52.660844   -35244.587    -36573.69    5.8908375   -1025.9882    92345.414   0.97182764    3113.4338 
  492000      5045000   -35197.042    5.3947393    48.225999   -35245.268   -36580.608    5.3947393   -1027.3272    92345.414   0.97182764    3115.4926 
  492500      5050000   -35203.554    5.1272999    45.835238    -35249.39   -36602.185    5.1272999   -1038.5127    92345.414   0.97182764    3117.5517 
  493000      5055000   -35209.782    4.7958483    42.872243   -35252.654   -36608.323    4.7958483   -1038.4461    92345.414   0.97182764    3119.5725 
  493500      5060000   -35215.513    4.5177501    40.386198   -35255.899   -36627.365    4.5177501   -1048.3299    92345.414   0.97182764    3121.8268 
  494000      5065000   -35221.213    4.1511982    37.109426   -35258.323    -36625.07    4.1511982   -1042.3928    92345.414   0.97182764    3123.8865 
  494500      5070000   -35227.015    3.7417944    33.449582   -35260.464   -36640.077    3.7417944   -1049.2285    92345.414   0.97182764    3126.0007 
  495000      5075000   -35232.858    3.4798377    31.107833   -35263.965   -36648.963    3.4798377   -1051.4884    92345.414   0.97182764     3128.109 
  495500      5080000   -35238.687    3.1765845    28.396916   -35267.084   -36639.679    3.1765845   -1040.2662    92345.414   0.97182764    3130.2827 
  496000      5085000   -35244.446     2.877457    25.722881   -35270.168   -36650.602     2.877457    -1044.101    92345.414   0.97182764    3132.4012 
  496500      5090000   -35250.236    2.5984262    23.228499   -35273.464   -36662.225    2.5984262   -1048.4315    92345.414   0.97182764     3134.483 
  497000      5095000   -35255.946    2.2516385    20.128409   -35276.075   -36679.569    2.2516385   -1057.0698    92345.414   0.97182764    3136.5873 
  497500      5100000   -35261.627    1.9367647     17.31361    -35278.94    -36683.22    1.9367647   -1055.5627    92345.414   0.97182764    3138.6364 
  498000      5105000   -35267.229    1.5922382    14.233733   -35281.463   -36691.408    1.5922382   -1057.4824    92345.414   0.97182764    3140.6467 
  498500      5110000   -35272.748    1.3403934    11.982379   -35284.731   -36697.395    1.3403934   -1057.8301    92345.414   0.97182764    3142.7149 
  499000      5115000   -35278.186    1.0101504    9.0301882   -35287.216   -36710.141    1.0101504    -1063.257    92345.414   0.97182764    3144.7845 
  499500      5120000   -35283.565   0.71033072    6.3499655   -35289.915   -36723.771   0.71033072   -1069.3839    92345.414   0.97182764    3146.8588 
  500000      5125000   -35289.243   0.40830699    3.6500396   -35292.893   -36729.341   0.40830699   -1069.3027    92345.414   0.97182764     3148.877 
Loop time of 3148.88 on 2 procs for 500000 steps with 3000 atoms

Performance: 137.192 ns/day, 0.175 hours/ns, 158.787 timesteps/s
85.0% CPU use with 2 MPI tasks x no OpenMP threads

MPI task timing breakdown:
Section |  min time  |  avg time  |  max time  |%varavg| %total
---------------------------------------------------------------
Pair    | 2609.1     | 2613       | 2616.9     |   7.6 | 82.98
Neigh   | 136.37     | 136.79     | 137.2      |   3.5 |  4.34
Comm    | 355.74     | 359.89     | 364.05     |  21.9 | 11.43
Output  | 0.8478     | 0.88227    | 0.91673    |   3.7 |  0.03
Modify  | 31.567     | 31.572     | 31.577     |   0.1 |  1.00
Other   |            | 6.791      |            |       |  0.22

Nlocal:    1500 ave 1506 max 1494 min
Histogram: 1 0 0 0 0 0 0 0 0 1
Nghost:    2223.5 ave 2226 max 2221 min
Histogram: 1 0 0 0 0 0 0 0 0 1
Neighs:    0 ave 0 max 0 min
Histogram: 2 0 0 0 0 0 0 0 0 0
FullNghs:  43732 ave 43834 max 43630 min
Histogram: 1 0 0 0 0 0 0 0 0 1

Total # of neighbors = 87464
Ave neighs/atom = 29.1547
Neighbor list builds = 33903
Dangerous builds = 22843

Total wall time: 0:56:20
