LAMMPS (11 Aug 2017)
####################################################################################
# External variables that have to be passed on call
# Temperature 	= temperature of the system
# trjFile	= name of the .xtc trajectory file
# dataFile	= name of the .data input for Lammps
# nRand		= random number as seed for the velocity creation
# Timestep	= timestep in fs
# Eps		= LJ epsilon of mW C interaction
# Sigma		= LJ epsilon of mW C interaction
# nTimesteps	= number of timesteps to run
# nStride       = stride of thermo and trajectory output
# pass variables to the script via ${variable_name}
#####################################################################################

units          real #read on lammps how this defines the units for energy, forces etc.
dimension      3 #simulation simension. 3D
newton         on
processors     * * * #(x y z) sets how splits into box between processors, * does auto
boundary       s s s #(x y z) periodic boundary conditions
atom_style     atomic #sets "style" of atoms being used in simulation. i.e. what attributes the atoms have (bonds, angles, spin..)
box tilt large
read_data      ${dataIN} #system set up, ie. type 1 and 2 atoms at certain positions and velocities
read_data      system.data 
  orthogonal box = (0 0 0) to (56 56 56)
  1 by 1 by 2 MPI processor grid
  reading atoms ...
  3375 atoms


#..but this file doesn't contain masses so need line below
####################################################################################
#mass - tell lammps atom masses. syntax: mass atom-type value
mass           1 18.015
mass           2 12.011

#groups - set the atoms in the simulation to belong to groups
#syntax: group "group name" type n
#set the groups by assigning "atom types" to them
group          mW 	type 1 #makes a group called "mW" (ie H20) from all type 1 atoms, which are
2197 atoms in group mW
#..defined in the file read by read_data
group          OH        type 2 #same but for the surface (type 2 is defined by read_data file)
1178 atoms in group OH

#set up interaction between the groups
pair_style sw #sw = stilinger-weber potential
pair_coeff * * ./mW-OH.sw mW OH  #file mW-OH.sw has potential definition in. Tell lammps to use this between group mW and OH defined above

#another interaction example - here set up Lenard-Jones interation between type 1 and type 2 atoms, then interaction between type 2 and type 2. You would also need a water-water interaction
#pair_coeff 1 2 lj/cut ${Eps} ${Sigma} # e.g. surface-water interaction
#pair_coeff 2 2 lj/cut 0.0    ${Sigma} # e.g. surface-surface interaction (set to zero strength for a surface of frozen atoms)


neighbor       2.0 bin

timestep       ${Timestep} #timestep for the equations of motion - Very important! Careful to use appropriate value for the model you are using
timestep       10 
min_style      cg #minimisation algrothim that will be used in any minimize command given to lammps
run_style      verlet #algorithm for the equations of motion "velocity-verlet" algorithm used

#make sure compute the correct temp. exclude the stationary surface
#syntax: compute name group attribute
compute        mWtemp mW temp #so mWtemp is the name we've given to temperature of the mW group (i.e. water) -> call in thermo_style with c_mWtemp

thermo         $(v_psStride*1000/v_Timestep) #how often outputs thermodynamic info. We don't want every timestep - too much information. Set up here so get information every v_psStride picoseconds
thermo         1000 
#thermo style: thermodynamic input - shown as table of values specified
thermo_style   custom step time etotal c_mWtemp ke pe enthalpy temp press vol density cpu
thermo_modify  flush yes

####################################################################################
#fix fZwalls all wall/reflect zhi EDGE #reflecting wall at top of sim - in case of evapouration
fix fMin OH setforce 0 0 0 #ensure forces between frozen surface are zero

#set wall for bottom of simulation - don't worry about
fix wallz mW wall/lj93 zlo 0.001 0.5 2 5 xlo 0.001 0.5 2 5 ylo 0.001 0.5 2 5 zhi EDGE 0.5 2 5 xhi EDGE 0.5 2 5 yhi EDGE 0.5 2 5
fix_modify wallz energy yes


############running a simulation######################################################
#1) the dump command tells lammps to save the positions and velocities of atoms - these can then be watched as a "trajectory" in the trajectoryfile ${trjFile}
#Put dump command where you wish to view from

dump d1 all xtc $(v_psStride*1000/v_Timestep) ${trjFile}
dump d1 all xtc 1000 ${trjFile}
dump d1 all xtc 1000 ./test1.xtc

#####equilibration phase of simulation####
#1st we minimised our setup - this gets us towards minimum energy config - stops the simulation exploding from the start from huge forces etc (e.g. if two atoms were very close together the force would be huge between them -> meaning they leave the box between one timestep and the other -> simulation crashes
#syntax: minimiza etol ftol maxiter maxeval - see lammps documentation self-explanatory
minimize 1e-13 1e-15 5000 50000
WARNING: Using 'neigh_modify every 1 delay 0 check yes' setting during minimization (../min.cpp:168)
Neighbor list info ...
  update every 1 steps, delay 0 steps, check yes
  max neighbors/atom: 2000, page size: 100000
  master list distance cutoff = 6.09869
  ghost atom cutoff = 6.09869
  binsize = 3.04935, bins = 19 19 19
  1 neighbor lists, perpetual/occasional/extra = 1 0 0
  (1) pair sw, perpetual
      attributes: full, newton on
      pair build: full/bin/atomonly
      stencil: full/bin/3d
      bin: standard
Per MPI rank memory allocation (min/avg/max) = 4.084 | 4.086 | 4.088 Mbytes
Step Time TotEng c_mWtemp KinEng PotEng Enthalpy Temp Press Volume Density CPU 
       0            0   -147.12011            0            0   -147.12011   -4086.9732            0   -1537.3739    175721.39   0.50772015            0 
     212         2120   -24454.724            0            0   -24454.724   -24165.225            0    112.96552    175721.39   0.50772015     0.893053 
Loop time of 0.893195 on 2 procs for 212 steps with 3375 atoms

92.8% CPU use with 2 MPI tasks x no OpenMP threads

Minimization stats:
  Stopping criterion = energy tolerance
  Energy initial, next-to-last, final = 
        -147.120111957     -24454.7235112     -24454.7235112
  Force two-norm initial, final = 1.48042 0.000182859
  Force max component initial, final = 0.0466424 3.65903e-05
  Final line search alpha, max atom move = 1 3.65903e-05
  Iterations, force evaluations = 212 284

MPI task timing breakdown:
Section |  min time  |  avg time  |  max time  |%varavg| %total
---------------------------------------------------------------
Pair    | 0.77461    | 0.78086    | 0.78712    |   0.7 | 87.42
Neigh   | 0.019481   | 0.019539   | 0.019597   |   0.0 |  2.19
Comm    | 0.052581   | 0.058631   | 0.064681   |   2.5 |  6.56
Output  | 0          | 0          | 0          |   0.0 |  0.00
Modify  | 0.009294   | 0.00935    | 0.009406   |   0.1 |  1.05
Other   |            | 0.02481    |            |       |  2.78

Nlocal:    1687.5 ave 1720 max 1655 min
Histogram: 1 0 0 0 0 0 0 0 0 1
Nghost:    337.5 ave 370 max 305 min
Histogram: 1 0 0 0 0 0 0 0 0 1
Neighs:    0 ave 0 max 0 min
Histogram: 2 0 0 0 0 0 0 0 0 0
FullNghs:  21467 ave 21802 max 21132 min
Histogram: 1 0 0 0 0 0 0 0 0 1

Total # of neighbors = 42934
Ave neighs/atom = 12.7212
Neighbor list builds = 14
Dangerous builds = 0

########set up gaussian velocities at a temp for the mW group##########
#just some initial configuration from which to start
velocity mW create ${T0} ${nRand} dist gaussian mom yes rot yes #initial set up, with random number
velocity mW create 300 ${nRand} dist gaussian mom yes rot yes 
velocity mW create 300 10517 dist gaussian mom yes rot yes 

##############equilibration###############
# - important step - once potential energy of system has a small variance then equilibrated system
#fix nvt command: runs nvt simulation (contstant number of particles, volume and controlled temperature)
#syntax: fix fixID groupID style-name keywords..
#keywords here are temp and tchain. temp: 3 arguements - start temp of sim, end temp of sim. temp damping parameter (how rapidly temperature is relaxed). tchain: one arguement - chain length
#This is all to do with the thermostat the simulation uses. Nose-Hoover style. Read info on lammps and elsewhere if want to properly understand. These are set up appropraitely so just use values here. Do at a contant temperature

timestep $(v_Timestep/2) #use half timestep for equilibration
timestep 5 
fix f1 mW nvt temp ${T0} ${T0} $(100*v_Timestep/2) tchain 10
fix f1 mW nvt temp 300 ${T0} $(100*v_Timestep/2) tchain 10
fix f1 mW nvt temp 300 300 $(100*v_Timestep/2) tchain 10
fix f1 mW nvt temp 300 300 500 tchain 10
fix_modify f1 temp mWtemp #makes temp become mWtemp - i.e. thermostat acts on the water
WARNING: Temperature for fix modify is not for group all (../fix_nh.cpp:1395)
run $(50*1000/v_Timestep*2) #rough rule for how long need to equilibrate for a timestep
run 10000 
Per MPI rank memory allocation (min/avg/max) = 2.971 | 2.973 | 2.974 Mbytes
Step Time TotEng c_mWtemp KinEng PotEng Enthalpy Temp Press Volume Density CPU 
     212            0   -22490.966          300    1963.7577   -24454.724   -20892.295    195.25785    623.81872    175721.39   0.50772015            0 
    1000         3940   -22715.622    338.71727    2217.1954   -24932.817   -23767.829    220.45736   -410.58277    175721.39   0.50772015     2.385012 
    2000         8940   -24163.671    311.62034    2039.8227   -26203.493   -25775.818    202.82106   -629.07756    175721.39   0.50772015       6.7741 
    3000        13940    -24881.11    307.01261    2009.6612   -26890.771   -26421.461    199.82208   -601.06199    175721.39   0.50772015     11.68214 
    4000        18940   -25320.612    302.34773    1979.1255   -27299.738   -27107.523    196.78589   -697.27223    175721.39   0.50772015    17.155714 
    5000        23940   -25542.409    302.25094     1978.492   -27520.901   -27696.854     196.7229   -840.68807    175721.39   0.50772015    22.676793 
    6000        28940    -25664.86     292.5138     1914.754   -27579.614   -28518.139    190.38539   -1113.3809    175721.39   0.50772015     27.88897 
    7000        33940    -25731.42    293.16052    1918.9874   -27650.408   -28072.742    190.80631   -913.60956    175721.39   0.50772015    33.092014 
    8000        38940   -25814.827     293.5783    1921.7221   -27736.549   -27921.323    191.07823   -821.97783    175721.39   0.50772015    38.412911 
    9000        43940   -25869.147    294.64727    1928.7194   -27797.867   -27929.149    191.77398   -803.83516    175721.39   0.50772015    43.458445 
   10000        48940   -25704.376    310.98209    2035.6448   -27740.021   -27656.461    202.40565   -761.72501    175721.39   0.50772015    48.631914 
   10212        50000   -25838.428    301.82743    1975.7198   -27814.147   -27769.057    196.44725   -753.35282    175721.39   0.50772015    49.709001 
Loop time of 49.7091 on 2 procs for 10000 steps with 3375 atoms

Performance: 86.906 ns/day, 0.276 hours/ns, 201.171 timesteps/s
95.1% CPU use with 2 MPI tasks x no OpenMP threads

MPI task timing breakdown:
Section |  min time  |  avg time  |  max time  |%varavg| %total
---------------------------------------------------------------
Pair    | 32.103     | 39.024     | 45.945     | 110.8 | 78.51
Neigh   | 1.2102     | 1.4876     | 1.7651     |  22.7 |  2.99
Comm    | 0.74285    | 7.9634     | 15.184     | 255.9 | 16.02
Output  | 0.005844   | 0.006057   | 0.00627    |   0.3 |  0.01
Modify  | 1.117      | 1.1363     | 1.1556     |   1.8 |  2.29
Other   |            | 0.09151    |            |       |  0.18

Nlocal:    1687.5 ave 1922 max 1453 min
Histogram: 1 0 0 0 0 0 0 0 0 1
Nghost:    304 ave 316 max 292 min
Histogram: 1 0 0 0 0 0 0 0 0 1
Neighs:    0 ave 0 max 0 min
Histogram: 2 0 0 0 0 0 0 0 0 0
FullNghs:  33529 ave 41515 max 25543 min
Histogram: 1 0 0 0 0 0 0 0 0 1

Total # of neighbors = 67058
Ave neighs/atom = 19.869
Neighbor list builds = 754
Dangerous builds = 11

####example of npt run - constant pressure instead of volume. System volume will change with time####
##this will likely be necessary for your simulation. If doing bulk liquid (i.e. periodic b.c in xy&z) then need appropraite density - equilibrate with npt then do production run nvt in this case.
#timestep $(v_Timestep/2)
#fix f1 mW npt temp 275 275 $(100*v_Timestep/2) tchain 10 iso 1.0 1.0 $(1000*v_Timestep/2) pchain 10
#fix_modify f1 temp mWtemp
#run $(50*1000/v_Timestep*2)


########production run##########
#after equilibrated - this is the data and trajectory you want as the results
#pass different T0 and T1 to cool as the sim goes -> "cooling ramp" simulation
#Max temperature change rate you should use for mW model is 0.5K/ns - so run simulation for long enough to obey this rule. i.e. 275K to 265K should be a 20ns simulation
unfix f1 #have to unfix the previous fix
fix f2 mW nvt temp ${T0} ${T1} $(100*v_Timestep) tchain 10
fix f2 mW nvt temp 300 ${T1} $(100*v_Timestep) tchain 10
fix f2 mW nvt temp 300 270 $(100*v_Timestep) tchain 10
fix f2 mW nvt temp 300 270 1000 tchain 10
fix_modify f2 temp mWtemp #makes temp become mWtemp -> have to do everytime
WARNING: Temperature for fix modify is not for group all (../fix_nh.cpp:1395)

#dump d1 all xtc $(v_psStride*1000/v_Timestep) ${trjFile} #uncomment to just watch production run
reset_timestep 0
run 0
Per MPI rank memory allocation (min/avg/max) = 2.978 | 3.145 | 3.312 Mbytes
Step Time TotEng c_mWtemp KinEng PotEng Enthalpy Temp Press Volume Density CPU 
       0        50000   -25838.428    301.82743    1975.7198   -27814.147   -27769.057    196.44725   -753.35282    175721.39   0.50772015            0 
Loop time of 4e-06 on 2 procs for 0 steps with 3375 atoms

75.0% CPU use with 2 MPI tasks x no OpenMP threads

MPI task timing breakdown:
Section |  min time  |  avg time  |  max time  |%varavg| %total
---------------------------------------------------------------
Pair    | 0          | 0          | 0          |   0.0 |  0.00
Neigh   | 0          | 0          | 0          |   0.0 |  0.00
Comm    | 0          | 0          | 0          |   0.0 |  0.00
Output  | 0          | 0          | 0          |   0.0 |  0.00
Modify  | 0          | 0          | 0          |   0.0 |  0.00
Other   |            | 4e-06      |            |       |100.00

Nlocal:    1687.5 ave 1919 max 1456 min
Histogram: 1 0 0 0 0 0 0 0 0 1
Nghost:    303 ave 315 max 291 min
Histogram: 1 0 0 0 0 0 0 0 0 1
Neighs:    0 ave 0 max 0 min
Histogram: 2 0 0 0 0 0 0 0 0 0
FullNghs:  33515 ave 41314 max 25716 min
Histogram: 1 0 0 0 0 0 0 0 0 1

Total # of neighbors = 67030
Ave neighs/atom = 19.8607
Neighbor list builds = 0
Dangerous builds = 0

#set simulation to run
timestep ${Timestep}
timestep 10
run $(v_nsRunTime*1000000/v_Timestep) #nsRuntime -> how long sim will run in nanoseconds
run 1500000 
Per MPI rank memory allocation (min/avg/max) = 2.978 | 3.145 | 3.312 Mbytes
Step Time TotEng c_mWtemp KinEng PotEng Enthalpy Temp Press Volume Density CPU 
       0        50000   -25838.428    301.82743    1975.7198   -27814.147   -27769.057    196.44725   -753.35282    175721.39   0.50772015            0 
    1000        60000   -25849.761    295.77701    1936.1146   -27785.876   -28170.985    192.50928   -905.76704    175721.39   0.50772015     5.247589 
    2000        70000   -25866.315    303.85494    1988.9916   -27855.306   -28310.527    197.76688    -953.7585    175721.39   0.50772015    10.771491 
    3000        80000    -25980.89    292.08765    1911.9645   -27892.854    -28395.02    190.10802    -942.0202    175721.39   0.50772015    16.277081 
    4000        90000   -25909.453    310.56684    2032.9267    -27942.38   -28136.913    202.13538   -869.17952    175721.39   0.50772015    21.539305 
    5000       100000   -26060.516    303.44328    1986.2969   -28046.813   -28033.908    197.49895   -770.03914    175721.39   0.50772015    26.771625 
    6000       110000   -26032.946    306.44251    2005.9294   -28038.875   -27933.304    199.45102   -741.54049    175721.39   0.50772015    31.929868 
    7000       120000   -26131.857    293.52709    1921.3869   -28053.243   -28231.091     191.0449   -819.14441    175721.39   0.50772015    37.235752 
    8000       130000   -26309.211    288.43528    1888.0566   -28197.267   -28287.966    187.73084   -772.13204    175721.39   0.50772015    42.467042 
    9000       140000   -26108.628    304.28822    1991.8277   -28100.456   -28445.381    198.04888   -911.82677    175721.39   0.50772015    47.569423 
   10000       150000   -26230.495    302.13794    1977.7523   -28208.247   -28038.469    196.64935   -705.49116    175721.39   0.50772015    52.848729 
   11000       160000   -26160.569    303.12386     1984.206   -28144.775   -28110.527    197.29105   -760.89502    175721.39   0.50772015     58.04951 
   12000       170000   -26176.468    307.10733    2010.2812    -28186.75   -28064.371    199.88373   -736.68031    175721.39   0.50772015    63.296735 
   13000       180000   -26326.249    289.07019    1892.2127   -28218.461   -28679.287    188.14408   -918.18132    175721.39   0.50772015    68.553925 
   14000       190000    -26235.34    307.91474    2015.5664   -28250.906   -28270.595    200.40924   -794.17892    175721.39   0.50772015    73.846855 
   15000       200000   -26266.761    304.76932     1994.977   -28261.738   -28861.793    198.36201   -1012.6102    175721.39   0.50772015    79.034023 
   16000       210000   -26361.138    294.06089    1924.8811   -28286.019   -28211.097    191.39233   -721.87427    175721.39   0.50772015    84.242934 
   17000       220000   -26327.504    311.46614    2038.8134   -28366.317   -28717.259     202.7207   -932.50861    175721.39   0.50772015    89.445611 
   18000       230000   -26336.879    295.68364    1935.5034   -28272.383   -28025.846    192.44851   -659.05335    175721.39   0.50772015    94.851241 
   19000       240000   -26278.672    310.03718    2029.4596   -28308.131   -28463.578    201.79065   -852.57456    175721.39   0.50772015    99.971482 
   20000       250000   -26392.811    292.66882    1915.7688    -28308.58   -28736.435    190.48628   -914.50776    175721.39   0.50772015    105.31921 
   21000       260000   -26310.683    302.56189    1980.5274   -28291.211   -28454.047    196.92529   -836.36419    175721.39   0.50772015    110.58333 
   22000       270000   -26345.182    299.81089    1962.5198   -28307.701   -28820.357    195.13477   -965.84055    175721.39   0.50772015    115.72804 
   23000       280000   -26315.117    293.60856    1921.9202   -28237.037   -28666.493    191.09792   -917.53264    175721.39   0.50772015    120.86009 
   24000       290000   -26273.619    303.64573    1987.6221   -28261.241   -28478.902    197.63071   -860.52585    175721.39   0.50772015    126.02771 
   25000       300000   -26428.792    300.06258    1964.1673   -28392.959   -28417.474    195.29858   -776.00578    175721.39   0.50772015    131.33587 
   26000       310000    -26380.69    303.10403    1984.0762   -28364.766   -28593.075    197.27814    -863.2968    175721.39   0.50772015    136.45715 
   27000       320000   -26424.492    302.70978    1981.4955   -28405.988    -28910.67    197.02154    -970.1337    175721.39   0.50772015    141.56514 
   28000       330000   -26351.243    300.22863    1965.2543   -28316.497   -28324.561    195.40666   -770.01041    175721.39   0.50772015    146.59879 
   29000       340000   -26469.956    303.97799     1989.797   -28459.753    -28822.74    197.84696   -918.08206    175721.39   0.50772015    151.56489 
   30000       350000    -26360.23    308.27471    2017.9227   -28378.153     -29160.4    200.64353    -1092.657    175721.39   0.50772015    156.56079 
   31000       360000   -26428.169    300.86875    1969.4444   -28397.613   -28291.723    195.82329   -727.17909    175721.39   0.50772015     161.5952 
   32000       370000   -26557.064    298.03269    1950.8799   -28507.944   -28935.429    193.97741    -928.0642    175721.39   0.50772015    166.68882 
   33000       380000   -26517.854    289.30074    1893.7218   -28411.576   -29024.248    188.29414   -978.02215    175721.39   0.50772015    171.73569 
   34000       390000    -26380.99    294.50188    1927.7677   -28308.758   -28550.754    191.67935   -846.66556    175721.39   0.50772015    176.89411 
   35000       400000   -26528.517    293.46346    1920.9704   -28449.488   -28353.418    191.00348   -712.09631    175721.39   0.50772015    181.94017 
   36000       410000   -26382.632    304.14311    1990.8779    -28373.51   -28632.068    197.95444   -877.75437    175721.39   0.50772015    186.95309 
   37000       420000   -26382.967    305.75377     2001.421   -28384.388   -28849.556    199.00275   -962.49037    175721.39   0.50772015    192.02905 
   38000       430000   -26535.569    294.83203    1929.9289   -28465.498   -28714.018    191.89423    -850.0545    175721.39   0.50772015    196.97659 
   39000       440000   -26425.548    299.63584    1961.3739   -28386.922   -28943.427    195.02083    -982.5038    175721.39   0.50772015    201.98687 
   40000       450000   -26470.918    289.59525    1895.6496   -28366.567   -28563.177    188.48582   -816.42276    175721.39   0.50772015    206.98152 
   41000       460000   -26497.207    301.24589    1971.9131    -28469.12   -28125.228    196.06875   -635.27172    175721.39   0.50772015     211.9747 
   42000       470000   -26415.318    305.63221    2000.6253   -28415.943   -28600.823    198.92363   -852.80791    175721.39   0.50772015    217.22658 
   43000       480000   -26413.205     296.7165    1942.2643   -28355.469   -28413.587    193.12076   -780.57106    175721.39   0.50772015    222.23187 
   44000       490000   -26404.135    297.21462     1945.525    -28349.66   -28859.577    193.44496   -958.14028    175721.39   0.50772015    227.23006 
   45000       500000   -26527.871    295.24941     1932.661   -28460.532   -29045.735    192.16589     -982.498    175721.39   0.50772015    232.20441 
   46000       510000   -26547.362    295.63804    1935.2049   -28482.567   -28136.691    192.41883   -620.17339    175721.39   0.50772015    237.14744 
   47000       520000   -26555.645    297.20925    1945.4898   -28501.134   -28217.437    193.44147   -648.44976    175721.39   0.50772015    242.07699 
   48000       530000    -26523.39    299.46143    1960.2322   -28483.622   -28464.856    194.90732    -757.5814    175721.39   0.50772015    247.01659 
   49000       540000   -26457.119    299.84772    1962.7608    -28419.88   -28285.841    195.15874   -713.58727    175721.39   0.50772015    252.11414 
   50000       550000   -26465.736    295.37515    1933.4841    -28399.22   -29024.717    192.24773   -998.54212    175721.39   0.50772015    257.13581 
   51000       560000   -26589.233    299.80166    1962.4594   -28551.692   -28291.039    195.12876    -664.0636    175721.39   0.50772015    262.73134 
   52000       570000   -26481.442    297.97622    1950.5103   -28431.952   -28400.158    193.94066   -748.70405    175721.39   0.50772015    267.78616 
   53000       580000   -26600.638    288.64375    1889.4213   -28490.059   -28720.206    187.86653   -827.07873    175721.39   0.50772015    272.75978 
   54000       590000   -26510.586    294.64909    1928.7313   -28439.317   -27678.809    191.77516   -455.85349    175721.39   0.50772015    277.71137 
   55000       600000   -26605.326    295.29786    1932.9781   -28538.304   -28979.163    192.19742   -926.29717    175721.39   0.50772015    282.72667 
   56000       610000   -26500.872    304.78144    1995.0563   -28495.928   -28144.572     198.3699   -641.38978    175721.39   0.50772015    287.74181 
   57000       620000   -26516.902    299.52846     1960.671   -28477.573    -28089.87    194.95094   -613.78951    175721.39   0.50772015    292.67702 
   58000       630000   -26426.609    297.14695     1945.082   -28371.691    -29171.63    193.40092   -1071.1373    175721.39   0.50772015    297.66161 
   59000       640000   -26496.465    302.29636    1978.7893   -28475.254   -29065.366    196.75246   -1002.4135    175721.39   0.50772015    302.54111 
   60000       650000   -26622.917    289.95382    1897.9968   -28520.914   -28502.337     188.7192   -733.37016    175721.39   0.50772015    307.86818 
   61000       660000   -26454.351    299.70391    1961.8195   -28416.171   -28967.735    195.06514   -980.74975    175721.39   0.50772015    312.91065 
   62000       670000   -26548.513    297.20489    1945.4613   -28493.975   -28337.698    193.43863   -698.15963    175721.39   0.50772015    317.80466 
   63000       680000   -26560.241    294.36634    1926.8805   -28487.121   -28914.384    191.59113   -918.61267    175721.39   0.50772015    322.62617 
   64000       690000   -26578.752    296.76699    1942.5949   -28521.347   -28929.321    193.15362   -917.21801    175721.39   0.50772015    327.44481 
   65000       700000   -26411.383    310.51593    2032.5934   -28443.977   -28588.295    202.10225   -849.45471    175721.39   0.50772015    332.27131 
   66000       710000   -26467.379    296.05249    1937.9178   -28405.297   -28435.945    192.68858   -768.15611    175721.39   0.50772015    337.10978 
   67000       720000   -26604.981    286.27303    1873.9028   -28478.884   -28404.668    186.32352   -702.25758    175721.39   0.50772015    341.99005 
   68000       730000   -26507.589    288.58151    1889.0138   -28396.603   -29283.688    187.82602   -1083.2642    175721.39   0.50772015    347.35659 
   69000       740000   -26532.547    298.24353      1952.26   -28484.807   -28746.088    194.11464   -863.74795    175721.39   0.50772015    352.23985 
   70000       750000   -26578.488    291.48782    1908.0382   -28486.526   -28557.304    189.71762   -772.15551    175721.39   0.50772015    357.20162 
   71000       760000   -26495.628    294.50429    1927.7835   -28423.411   -28622.002    191.68092   -829.73461    175721.39   0.50772015    362.25144 
   72000       770000   -26604.978    298.79152    1955.8471   -28560.825   -29292.313     194.4713   -1048.6276    175721.39   0.50772015    367.17194 
   73000       780000   -26550.301    290.68505    1902.7833   -28453.084   -29125.099    189.19513   -1004.7147    175721.39   0.50772015    372.21379 
   74000       790000   -26612.369     291.0126    1904.9274   -28517.297   -29521.832    189.40832   -1135.3041    175721.39   0.50772015    377.37839 
   75000       800000   -26559.254    302.39677    1979.4466     -28538.7   -28884.564    196.81781   -907.36156    175721.39   0.50772015    382.36447 
   76000       810000   -26481.615    296.15594     1938.595    -28420.21   -28946.184    192.75591   -961.70179    175721.39   0.50772015    387.29262 
   77000       820000   -26473.187    298.19826    1951.9637   -28425.151   -28289.919    194.08517   -708.90888    175721.39   0.50772015    392.17345 
   78000       830000    -26371.63    316.98173    2074.9177   -28446.547   -28388.963    206.31057   -787.18549    175721.39   0.50772015    397.27558 
   79000       840000    -26585.98    292.65678      1915.69    -28501.67   -28886.254    190.47845   -897.59215    175721.39   0.50772015    402.15999 
   80000       850000   -26516.193    299.68623    1961.7038   -28477.897   -28354.135    195.05364   -717.18503    175721.39   0.50772015    408.06806 
   81000       860000   -26554.425    289.12174    1892.5501   -28446.975   -29128.031    188.17764   -1004.2495    175721.39   0.50772015    413.25106 
   82000       870000   -26471.097     309.6489     2026.918   -28498.015   -28311.412    201.53793   -718.11111    175721.39   0.50772015    418.66086 
   83000       880000    -26498.27     303.9459     1989.587   -28487.857   -28494.462    197.82608   -778.93592    175721.39   0.50772015    423.64481 
   84000       890000   -26588.742    300.19458    1965.0314   -28553.774   -28433.108     195.3845    -719.6918    175721.39   0.50772015    428.59848 
   85000       900000   -26603.899    298.36359    1953.0459   -28556.945   -28871.731    194.19278   -884.93288    175721.39   0.50772015    435.13065 
   86000       910000   -26484.795    298.99841    1957.2014   -28441.996   -28787.925    194.60596   -898.70675    175721.39   0.50772015    440.56376 
   87000       920000   -26570.855    293.29161    1919.8455     -28490.7   -29596.009    190.89163   -1180.4482    175721.39   0.50772015    446.21937 
   88000       930000   -26426.892    289.34661    1894.0221   -28320.915    -28332.04      188.324   -743.40949    175721.39   0.50772015     451.3409 
   89000       940000   -26500.937     304.2725    1991.7249   -28492.662   -28444.878    198.03865   -758.54716    175721.39   0.50772015    456.65776 
   90000       950000   -26506.332    300.03585    1963.9923   -28470.324   -29048.634    195.28119   -992.03396    175721.39   0.50772015    461.90157 
   91000       960000   -26626.436    299.77137    1962.2611   -28588.697   -28444.992    195.10905   -709.62067    175721.39   0.50772015     467.2928 
   92000       970000   -26587.246    298.17002    1951.7788   -28539.025   -28520.658    194.06679   -754.43865    175721.39   0.50772015    472.63787 
   93000       980000   -26580.313    298.55945     1954.328   -28534.641   -28840.355    194.32026   -881.89317    175721.39   0.50772015     478.5068 
   94000       990000   -26583.964    296.72871    1942.3443   -28526.308    -28940.87    193.12871   -919.69047    175721.39   0.50772015      484.165 
   95000      1000000   -26532.838    291.94643    1911.0401   -28443.878   -28167.048    190.01611   -637.68652    175721.39   0.50772015    490.25709 
   96000      1010000   -26539.138    311.00676    2035.8064   -28574.944   -28664.411    202.42171    -829.3048    175721.39   0.50772015    495.20127 
   97000      1020000   -26586.369    295.24503    1932.6323   -28519.001   -28469.583    192.16304   -734.85082    175721.39   0.50772015    500.57197 
   98000      1030000   -26619.578    294.36891    1926.8974   -28546.476   -28909.393    191.59281   -893.51086    175721.39   0.50772015     505.4694 
   99000      1040000   -26532.095    300.36413    1966.1412   -28498.236   -28896.219    195.49485    -922.5072    175721.39   0.50772015    510.94524 
  100000      1050000   -26563.204    304.40888    1992.6176   -28555.822   -28416.434    198.12742   -723.15081    175721.39   0.50772015    515.87714 
  101000      1060000    -26532.28    304.04259    1990.2199     -28522.5    -28380.69    197.88901   -721.26956    175721.39   0.50772015     520.8414 
  102000      1070000   -26566.408    303.17174    1984.5194   -28550.928   -28932.518    197.32221   -923.28212    175721.39   0.50772015    525.74182 
  103000      1080000   -26548.882    301.53659     1973.816   -28522.698   -28533.142    196.25796   -774.28022    175721.39   0.50772015    530.76358 
  104000      1090000   -26643.676    296.00326    1937.5956   -28581.271   -28512.301    192.65654   -729.15816    175721.39   0.50772015     535.6318 
  105000      1100000   -26577.833    300.35835    1966.1034   -28543.936   -27865.793    195.49109   -502.57607    175721.39   0.50772015    540.86789 
  106000      1110000    -26624.22    293.10297    1918.6107   -28542.831   -29136.603    190.76886    -980.3594    175721.39   0.50772015     546.0479 
  107000      1120000   -26599.711    305.07934    1997.0063   -28596.717   -28174.071    198.56379   -614.33268    175721.39   0.50772015    551.08032 
  108000      1130000    -26599.56    299.31378    1959.2657   -28558.825   -28728.125    194.81122   -830.58971    175721.39   0.50772015     555.9188 
  109000      1140000   -26611.526    297.11258     1944.857   -28556.383   -27893.338    193.37855   -500.17703    175721.39   0.50772015    560.72699 
  110000      1150000   -26542.995    302.94255    1983.0192   -28526.014   -28414.647    197.17304   -730.33919    175721.39   0.50772015     565.5537 
  111000      1160000   -26578.501    303.21017     1984.771   -28563.272   -28190.514    197.34723   -629.02506    175721.39   0.50772015    570.35321 
  112000      1170000   -26574.799    297.33567    1946.3173   -28521.116    -29184.63    193.52375   -1018.3849    175721.39   0.50772015    575.21646 
  113000      1180000   -26526.668    303.76112    1988.3774   -28515.046   -28867.345    197.70581   -913.35787    175721.39   0.50772015    580.13858 
  114000      1190000   -26661.998    291.66279    1909.1835   -28571.182   -29119.352     189.8315   -958.88623    175721.39   0.50772015    584.96388 
  115000      1200000   -26524.217    304.22004    1991.3815   -28515.599   -28871.537    198.00451    -915.9499    175721.39   0.50772015    589.88599 
  116000      1210000   -26583.079    297.74612    1949.0041   -28532.083   -28665.322    193.79089   -812.51376    175721.39   0.50772015    594.72724 
  117000      1220000    -26581.01    296.35939    1939.9267   -28520.937    -28444.48    192.88833   -727.14652    175721.39   0.50772015    599.55701 
  118000      1230000   -26738.247    290.89375    1904.1494   -28642.396   -28666.065    189.33097   -752.25558    175721.39   0.50772015    605.38757 
  119000      1240000    -26619.11    299.94637    1963.4066   -28582.516   -28508.726    195.22295   -737.34914    175721.39   0.50772015    610.20962 
  120000      1250000   -26667.514    298.11742    1951.4346   -28618.949   -28644.209    194.03256   -771.32795    175721.39   0.50772015    615.02167 
  121000      1260000    -26702.33    294.70973    1929.1283   -28631.459   -29104.599    191.81463   -937.39168    175721.39   0.50772015    619.79159 
  122000      1270000   -26569.564    301.84864    1975.8586   -28545.422   -29147.718    196.46106   -1006.0241    175721.39   0.50772015    624.50032 
  123000      1280000   -26610.281    303.80175    1988.6434   -28598.925   -29012.387    197.73226   -937.32797    175721.39   0.50772015    629.15987 
  124000      1290000   -26641.699     306.5798    2006.8281   -28648.528   -28457.317    199.54038    -708.4738    175721.39   0.50772015    633.83176 
  125000      1300000   -26610.868    300.35746    1966.0975   -28576.966   -28018.859    195.49051   -549.41364    175721.39   0.50772015    638.55683 
  126000      1310000   -26673.395    299.60631    1961.1806   -28634.575   -28890.495    195.00162   -865.13695    175721.39   0.50772015    643.22095 
  127000      1320000   -26637.303    303.16354    1984.4658   -28621.769   -28610.612    197.31687   -770.00672    175721.39   0.50772015    647.90849 
  128000      1330000   -26694.811    292.22326    1912.8522   -28607.663   -28708.571    190.19629   -785.79125    175721.39   0.50772015    652.63766 
  129000      1340000   -26662.875    292.27076    1913.1632   -28576.038   -28736.533    190.22721   -809.16419    175721.39   0.50772015    657.29101 
  130000      1350000   -26635.358    295.94321    1937.2025   -28572.561   -28304.366    192.61745   -651.26509    175721.39   0.50772015    661.94212 
  131000      1360000   -26646.193    296.21976    1939.0128   -28585.206   -28633.297    192.79745   -775.38996    175721.39   0.50772015    666.56132 
  132000      1370000    -26539.15    308.60609    2020.0919   -28559.242   -28577.426    200.85921   -795.35767    175721.39   0.50772015     671.2596 
  133000      1380000   -26624.975    302.06342    1977.2645   -28602.239   -28890.891    196.60085   -884.18543    175721.39   0.50772015    675.78359 
  134000      1390000   -26638.655     302.2082    1978.2122   -28616.867   -28579.907    196.69508   -757.49804    175721.39   0.50772015    680.29583 
  135000      1400000   -26676.509    299.22863    1958.7084   -28635.217   -28299.627     194.7558   -633.35832    175721.39   0.50772015    684.76639 
  136000      1410000   -26522.452    306.07111    2003.4983    -28525.95   -28889.124    199.20929   -923.50156    175721.39   0.50772015    689.27231 
  137000      1420000   -26613.754    290.34697    1900.5703   -28514.325   -28595.141    188.97509     -773.159    175721.39   0.50772015    693.74535 
  138000      1430000   -26433.917       302.08    1977.3731   -28411.291   -28289.423    196.61164    -724.0387    175721.39   0.50772015    698.39338 
  139000      1440000   -26616.798    300.60357    1967.7086   -28584.507   -28904.533    195.65069   -892.69909    175721.39   0.50772015    703.02129 
  140000      1450000   -26495.159    298.69393    1955.2083   -28450.367   -28919.219    194.40779     -945.895    175721.39   0.50772015    708.28969 
  141000      1460000   -26676.195    290.83486    1903.7639   -28579.959   -28572.038    189.29263   -739.77897    175721.39   0.50772015    713.50994 
  142000      1470000   -26552.929    305.02067    1996.6222   -28549.551   -28614.667     198.5256   -804.51304    175721.39   0.50772015     718.0708 
  143000      1480000   -26614.494     291.1508    1905.8321   -28520.326   -29039.101    189.49827   -946.10831    175721.39   0.50772015    722.63103 
  144000      1490000   -26670.114    294.84089    1929.9868   -28600.101   -28226.595        191.9   -607.35625    175721.39   0.50772015    727.19152 
  145000      1500000   -26584.144    299.74419    1962.0832   -28546.227   -28611.086    195.09136   -790.93486    175721.39   0.50772015     731.9643 
  146000      1510000   -26606.866    298.46889    1953.7352   -28560.601   -28368.808    194.26132   -687.52934    175721.39   0.50772015    736.59556 
  147000      1520000   -26671.509    290.85054    1903.8666   -28575.376   -28150.685    189.30284   -577.19069    175721.39   0.50772015    741.14864 
  148000      1530000    -26647.11    292.61943    1915.4455   -28562.556   -28395.988    190.45414   -682.43119    175721.39   0.50772015    745.75098 
  149000      1540000   -26538.547    299.42732     1960.009   -28498.556   -29050.734    194.88512   -980.28292    175721.39   0.50772015    750.28735 
  150000      1550000   -26658.408    303.56734     1987.109   -28645.516   -28422.502    197.57969    -688.3689    175721.39   0.50772015    755.01963 
  151000      1560000   -26731.802    293.41566    1920.6575   -28652.459   -28821.608    190.97238   -815.46544    175721.39   0.50772015    759.55047 
  152000      1570000   -26657.446    298.96498    1956.9826   -28614.428   -28652.758     194.5842   -778.59275    175721.39   0.50772015    764.30964 
  153000      1580000   -26763.606    292.88935    1917.2123   -28680.818   -28267.253    190.62982   -586.73952    175721.39   0.50772015     768.9796 
  154000      1590000   -26657.676    295.75468    1935.9684   -28593.644   -28704.901    192.49475   -798.84969    175721.39   0.50772015    773.44936 
  155000      1600000   -26485.098    302.54518    1980.4181   -28465.516   -28666.844    196.91441    -851.3412    175721.39   0.50772015    777.88907 
  156000      1610000   -26649.188    291.56444    1908.5397   -28557.728   -28796.242    189.76749   -837.80408    175721.39   0.50772015    782.35168 
  157000      1620000    -26624.25    302.35493    1979.1727   -28603.423   -28773.799    196.79058   -838.77778    175721.39   0.50772015       786.78 
  158000      1630000    -26630.65    300.12001    1964.5432   -28595.193   -28622.373    195.33596   -777.19228    175721.39   0.50772015    791.38109 
  159000      1640000   -26698.861    296.74469    1942.4489    -28641.31   -29004.124    193.13911   -899.53904    175721.39   0.50772015    795.82887 
  160000      1650000   -26571.002    296.53034    1941.0457   -28512.047    -29945.11    192.99959   -1316.6142    175721.39   0.50772015    800.30514 
  161000      1660000   -26600.917    295.67771    1935.4646   -28536.382   -29245.191    192.44465   -1031.8245    175721.39   0.50772015    804.71724 
  162000      1670000   -26645.614    294.08991     1925.071   -28570.685    -29542.98    191.41122   -1130.5841    175721.39   0.50772015     809.1509 
  163000      1680000   -26763.507     285.5146    1868.9383   -28632.445   -28748.748    185.82989   -774.66312    175721.39   0.50772015    813.72735 
  164000      1690000   -26667.633    299.31134    1959.2498   -28626.883   -28655.354    194.80963   -775.63045    175721.39   0.50772015    818.16034 
  165000      1700000   -26683.561    296.30116    1939.5456   -28623.107   -28934.692    192.85043   -878.41601    175721.39   0.50772015    822.55887 
  166000      1710000   -26723.491    300.82562     1969.162   -28692.653   -29251.033    195.79522   -986.27453    175721.39   0.50772015    827.11752 
  167000      1720000   -26678.523    301.73249    1975.0983   -28653.621   -28661.074    196.38546   -773.61326    175721.39   0.50772015    831.46177 
  168000      1730000   -26674.613    295.08389    1931.5775    -28606.19   -28333.378    192.05816   -647.26848    175721.39   0.50772015    835.82739 
  169000      1740000   -26705.139    296.65127    1941.8374   -28646.976   -28561.648     193.0783   -724.43049    175721.39   0.50772015    840.17156 
  170000      1750000   -26573.172    298.35127    1952.9653   -28526.137   -28751.355    194.18476   -849.95102    175721.39   0.50772015    844.53635 
  171000      1760000   -26590.839    295.73216     1935.821    -28526.66   -28306.875    192.48009   -669.61625    175721.39   0.50772015    848.91683 
  172000      1770000     -26616.9    297.29384    1946.0435   -28562.944   -28821.701    193.49652   -860.33721    175721.39   0.50772015    853.43441 
  173000      1780000    -26585.42    301.12771    1971.1395    -28556.56   -28948.183    195.99183    -921.9758    175721.39   0.50772015    857.85912 
  174000      1790000   -26598.482    298.69556     1955.219   -28553.701   -28496.621    194.40885   -740.67456    175721.39   0.50772015    862.25671 
  175000      1800000   -26631.175     296.8843    1943.3627   -28574.538   -28742.595    193.22997   -823.89911    175721.39   0.50772015    866.62891 
  176000      1810000   -26571.064    299.39695    1959.8101   -28530.874   -28185.867    194.86535   -630.11391    175721.39   0.50772015     871.0388 
  177000      1820000   -26651.811    301.12244     1971.105   -28622.916   -28450.567    195.98841   -701.89426    175721.39   0.50772015    875.47838 
  178000      1830000   -26671.078    295.35692    1933.3647   -28604.443   -29129.342    192.23586    -959.2415    175721.39   0.50772015    879.90158 
  179000      1840000   -26619.215    302.96903    1983.1925   -28602.408   -28307.883    197.19028   -658.93696    175721.39   0.50772015    884.28841 
  180000      1850000   -26563.945    306.02903    2003.2228   -28567.168   -28430.182     199.1819   -728.22591    175721.39   0.50772015    888.77268 
  181000      1860000   -26684.148    287.07876    1879.1771   -28563.325   -29072.654    186.84794   -932.02124    175721.39   0.50772015     893.1529 
  182000      1870000   -26628.873    300.41657    1966.4845   -28595.358   -29024.892    195.52899   -934.95266    175721.39   0.50772015    897.57158 
  183000      1880000   -26606.889    297.91978    1950.1408    -28557.03   -29071.313    193.90392   -961.64519    175721.39   0.50772015    901.99416 
  184000      1890000   -26659.002    293.39751    1920.5387   -28579.541   -29399.109    190.96056   -1069.2197    175721.39   0.50772015     906.3712 
  185000      1900000   -26763.644    287.35253    1880.9691   -28644.613   -28082.927    187.02613   -514.79855    175721.39   0.50772015    910.85723 
  186000      1910000   -26572.714    292.56299     1915.076    -28487.79   -28908.681     190.4174      -911.52    175721.39   0.50772015    915.25141 
  187000      1920000   -26713.202    290.84916    1903.8576   -28617.059   -29080.586    189.30194   -923.77937    175721.39   0.50772015    919.70837 
  188000      1930000   -26700.175    288.96206    1891.5049    -28591.68   -28657.269     188.0737   -763.67951    175721.39   0.50772015     924.1234 
  189000      1940000   -26749.448    291.28302    1906.6976   -28656.146   -28528.907    189.58433   -694.36448    175721.39   0.50772015    928.50288 
  190000      1950000   -26584.538    307.55836    2013.2336   -28597.771   -27814.319    200.17728   -479.87431    175721.39   0.50772015    932.90585 
  191000      1960000   -26696.022    288.70324    1889.8107   -28585.832    -29318.62    187.90525   -1023.3668    175721.39   0.50772015     937.3351 
  192000      1970000   -26629.515    306.80808    2008.3224   -28637.838   -28741.422    199.68896   -824.08919    175721.39   0.50772015    941.78146 
  193000      1980000    -26747.69    286.89866    1877.9981   -28625.688   -28888.016    186.73072   -835.17878    175721.39   0.50772015    946.18463 
  194000      1990000    -26646.53    296.01156    1937.6499    -28584.18   -28888.486    192.66194   -874.83571    175721.39   0.50772015    950.64141 
  195000      2000000   -26656.717    293.60293    1921.8834   -28578.601   -28616.489    191.09426   -764.72463    175721.39   0.50772015    955.03458 
  196000      2010000   -26565.916    303.50219    1986.6825   -28552.599   -28918.417    197.53729   -917.97158    175721.39   0.50772015    959.41122 
  197000      2020000   -26633.865    293.70804    1922.5714   -28556.437   -28794.053    191.16267   -842.92882    175721.39   0.50772015    963.77009 
  198000      2030000   -26589.724    306.08835    2003.6111   -28593.335   -29072.639    199.22051   -968.86063    175721.39   0.50772015    968.13949 
  199000      2040000    -26495.13    305.26796     1998.241   -28493.371   -28933.597    198.68656   -951.51664    175721.39   0.50772015    972.67981 
  200000      2050000   -26661.785    289.95784    1898.0231   -28559.808   -28622.059    188.72182    -764.9203    175721.39   0.50772015    977.03965 
  201000      2060000   -26560.166    294.37459    1926.9345     -28487.1    -28517.12     191.5965   -763.62502    175721.39   0.50772015    981.46045 
  202000      2070000   -26624.993    296.01025    1937.6413   -28562.634   -29053.523    192.66109   -947.63919    175721.39   0.50772015    985.78762 
  203000      2080000   -26626.743    296.20265    1938.9007   -28565.644   -28726.848    192.78631   -819.48396    175721.39   0.50772015    990.17563 
  204000      2090000   -26696.241    297.41918     1946.864   -28643.105   -28707.785     193.5781   -784.92656    175721.39   0.50772015    994.56212 
  205000      2100000   -26614.389    302.72465    1981.5928   -28595.982   -29252.882    197.03122    -1029.569    175721.39   0.50772015    998.98835 
  206000      2110000   -26635.104    286.16723    1873.2103   -28508.314   -29257.608    186.25467   -1023.3298    175721.39   0.50772015    1003.3891 
  207000      2120000   -26592.424    294.73841    1929.3161    -28521.74   -28367.407     191.8333   -692.61803    175721.39   0.50772015    1008.0013 
  208000      2130000   -26605.179    299.19579    1958.4934   -28563.673   -28597.615    194.73442   -777.47027    175721.39   0.50772015    1012.4037 
  209000      2140000   -26538.815    299.73576     1962.028   -28500.842   -28821.703    195.08587   -890.80817    175721.39   0.50772015    1016.8172 
  210000      2150000   -26593.432     290.8791    1904.0535   -28497.485   -29242.572    189.32143   -1033.7237    175721.39   0.50772015    1021.1796 
  211000      2160000   -26640.459    293.49057    1921.1478   -28561.606   -28913.375    191.02113   -886.91693    175721.39   0.50772015    1025.5804 
  212000      2170000   -26530.897       305.01    1996.5524   -28527.449   -28718.451    198.51866   -853.60777    175721.39   0.50772015    1030.0892 
  213000      2180000   -26695.601     291.6165    1908.8805   -28604.481   -29413.358    189.80138   -1060.4984    175721.39   0.50772015    1034.4966 
  214000      2190000   -26659.698    297.49272    1947.3454   -28607.043   -29067.594    193.62597   -939.58745    175721.39   0.50772015    1038.9528 
  215000      2200000   -26818.362    282.31292    1847.9805   -28666.342   -29082.427    183.74605   -883.46305    175721.39   0.50772015    1043.3519 
  216000      2210000   -26632.542    290.35628    1900.6312   -28533.173   -28338.743    188.98115   -665.77851    175721.39   0.50772015    1047.7499 
  217000      2220000   -26718.176    298.81572    1956.0056   -28674.181   -28945.845    194.48706   -869.26122    175721.39   0.50772015    1052.1671 
  218000      2230000   -26609.061    302.03233     1977.061   -28586.122    -28610.54    196.58061   -780.99921    175721.39   0.50772015    1056.5987 
  219000      2240000   -26679.713    298.30049    1952.6329   -28632.346    -29131.45    194.15171   -956.69462    175721.39   0.50772015    1061.0227 
  220000      2250000   -26673.268    289.10371    1892.4321     -28565.7   -29213.702     188.1659   -991.30538    175721.39   0.50772015     1065.492 
  221000      2260000   -26673.082    299.53028    1960.6829   -28633.765    -28928.88    194.95213   -880.23687    175721.39   0.50772015    1069.9841 
  222000      2270000   -26635.769    302.54136    1980.3931   -28616.162   -28709.549    196.91192   -809.21205    175721.39   0.50772015    1074.3729 
  223000      2280000    -26712.49     292.2493    1913.0227   -28625.513    -28425.23    190.21324   -668.32985    175721.39   0.50772015     1078.737 
  224000      2290000   -26569.867    302.65647    1981.1466   -28551.014   -28190.298    196.98685   -632.30986    175721.39   0.50772015    1083.1156 
  225000      2300000   -26607.367    294.01433    1924.5763   -28531.943   -29347.378    191.36202   -1069.1825    175721.39   0.50772015    1087.4849 
  226000      2310000   -26714.668    293.59249     1921.815   -28636.483   -28241.823    191.08747   -595.91231    175721.39   0.50772015    1092.0835 
  227000      2320000   -26606.343    293.72026    1922.6514   -28528.995   -27923.197    191.17063   -513.85089    175721.39   0.50772015    1096.5002 
  228000      2330000   -26720.766    291.29332     1906.765   -28627.531   -28474.499    189.59103   -684.32564    175721.39   0.50772015    1100.9603 
  229000      2340000   -26644.818    299.43628    1960.0676   -28604.886   -28510.038    194.89095   -727.82918    175721.39   0.50772015    1105.3501 
  230000      2350000   -26765.859    291.15593    1905.8656   -28671.725   -29003.037    189.50161   -872.97148    175721.39   0.50772015    1109.7699 
  231000      2360000   -26714.591    290.61609    1902.3319   -28616.923   -28706.313    189.15025   -777.19179    175721.39   0.50772015    1114.3045 
  232000      2370000   -26742.545    289.23117    1893.2664   -28635.811    -28841.86    188.24886    -819.1759    175721.39   0.50772015     1118.788 
  233000      2380000   -26622.318     288.8165     1890.552    -28512.87   -29344.628    187.97896   -1062.2753    175721.39   0.50772015    1124.3581 
  234000      2390000    -26648.14    288.77159     1890.258   -28538.398   -28555.524    187.94973   -744.28203    175721.39   0.50772015      1128.84 
  235000      2400000    -26690.03    293.89611    1923.8025   -28613.832    -29248.12    191.28508    -998.1948    175721.39   0.50772015    1133.3386 
  236000      2410000   -26672.493    291.41164    1907.5394   -28580.032   -28513.515    189.66804    -718.3872    175721.39   0.50772015    1137.7662 
  237000      2420000   -26607.741    293.08611    1918.5003   -28526.241   -28191.778    190.75788   -618.10873    175721.39   0.50772015    1142.3599 
  238000      2430000   -26629.731    297.24723    1945.7384    -28575.47   -28765.628    193.46619   -833.45044    175721.39   0.50772015    1146.8087 
  239000      2440000     -26661.6    299.90753    1963.1524   -28624.752   -28855.982    195.19767     -856.272    175721.39   0.50772015    1151.4351 
  240000      2450000   -26638.558    284.73405    1863.8289   -28502.387   -28791.868    185.32187    -840.2454    175721.39   0.50772015    1155.9999 
  241000      2460000   -26741.969    294.15649    1925.5069   -28667.476   -28700.762    191.45455   -764.34254    175721.39   0.50772015    1160.4877 
  242000      2470000   -26644.755    298.83851    1956.1547   -28600.909   -28385.858    194.50189   -679.39779    175721.39   0.50772015    1164.8716 
  243000      2480000   -26750.799    292.16459    1912.4682   -28663.267   -28688.276     190.1581   -756.02479    175721.39   0.50772015     1169.304 
  244000      2490000   -26697.015    302.09281    1977.4569   -28674.472   -28668.585    196.61998   -769.32817    175721.39   0.50772015    1173.8955 
  245000      2500000   -26742.503    290.40345      1900.94   -28643.443   -28872.816    189.01185   -831.27167    175721.39   0.50772015    1178.2623 
  246000      2510000   -26720.001    298.08596    1951.2286   -28671.229   -28717.866    194.01208   -779.58906    175721.39   0.50772015    1182.6551 
  247000      2520000   -26761.804     289.4728    1894.8481   -28656.652   -28303.283    188.40612   -601.50184    175721.39   0.50772015    1187.1639 
  248000      2530000   -26675.384    299.51226     1960.565   -28635.949   -28758.105     194.9404   -812.70032    175721.39   0.50772015    1191.5911 
  249000      2540000   -26749.051    294.86232    1930.1272   -28679.178   -28564.324    191.91395   -708.33959    175721.39   0.50772015    1195.9857 
  250000      2550000   -26769.757    289.64856    1895.9986   -28665.755   -29281.821    188.52052   -980.23497    175721.39   0.50772015    1200.4014 
  251000      2560000   -26602.714    292.83764    1916.8738   -28519.588   -28724.403    190.59616   -827.90643    175721.39   0.50772015    1204.7868 
  252000      2570000   -26711.543     291.5064    1908.1598   -28619.702   -29443.311    189.72971   -1065.9661    175721.39   0.50772015    1209.3877 
  253000      2580000   -26673.147    295.54804    1934.6158   -28607.762   -28999.929    192.36026   -907.93583    175721.39   0.50772015    1213.8164 
  254000      2590000   -26765.389    285.32638    1867.7062   -28633.096   -28976.061    185.70739   -862.62848    175721.39   0.50772015    1218.4021 
  255000      2600000   -26695.257    297.11962    1944.9031    -28640.16   -28859.888    193.38313   -844.66287    175721.39   0.50772015    1222.7785 
  256000      2610000   -26549.652    306.40976    2005.7151   -28555.367   -28996.786    199.42971   -954.89856    175721.39   0.50772015     1227.162 
  257000      2620000   -26672.265    297.37387    1946.5674   -28618.833   -28832.914    193.54861   -843.10863    175721.39   0.50772015    1231.5658 
  258000      2630000   -26709.343    297.68174    1948.5827   -28657.926   -28223.451    193.74899   -590.82152    175721.39   0.50772015    1235.9728 
  259000      2640000    -26659.43    288.14952    1886.1861   -28545.616    -28414.47    187.54486   -684.83592    175721.39   0.50772015    1240.4256 
  260000      2650000   -26763.811    294.98931    1930.9584   -28694.769   -28693.029     191.9966   -752.80225    175721.39   0.50772015    1244.8379 
  261000      2660000    -26652.86    291.96315    1911.1495   -28564.009   -29171.914    190.02699   -982.96245    175721.39   0.50772015    1249.3125 
  262000      2670000   -26635.167    294.65765    1928.7874   -28563.954   -29260.315    191.78073   -1024.3619    175721.39   0.50772015    1253.7967 
  263000      2680000   -26781.131    291.15815    1905.8802   -28687.012   -28251.789    189.50305   -573.86663    175721.39   0.50772015    1258.2339 
  264000      2690000   -26759.747     283.5674    1856.1922   -28615.939   -28763.786    184.56254     -781.998    175721.39   0.50772015    1262.7611 
  265000      2700000   -26716.335    297.39785    1946.7244   -28663.059   -29359.391    193.56422   -1031.3496    175721.39   0.50772015    1267.2005 
  266000      2710000   -26692.539    295.29796    1932.9788   -28625.518   -27600.315    192.19749   -354.22415    175721.39   0.50772015    1271.7909 
  267000      2720000   -26688.801    299.58825    1961.0624   -28649.864   -28345.011    194.98986   -646.27134    175721.39   0.50772015    1276.4548 
  268000      2730000   -26786.706    298.56615    1954.3719   -28741.078   -28768.326    194.32462   -773.24995    175721.39   0.50772015    1280.8818 
  269000      2740000   -26674.418    290.16048    1899.3495   -28573.768   -28388.267    188.85371   -668.76266    175721.39   0.50772015     1285.315 
  270000      2750000   -26634.128    299.88214    1962.9862   -28597.114   -29482.736    195.18115   -1111.5581    175721.39   0.50772015    1289.7369 
  271000      2760000   -26634.603    300.04737    1964.0678    -28598.67   -29097.827    195.28869   -961.17707    175721.39   0.50772015    1294.1574 
  272000      2770000    -26682.23    293.76601    1922.9508   -28605.181   -28854.263     191.2004    -847.5511    175721.39   0.50772015    1298.5901 
  273000      2780000   -26579.401    303.23273    1984.9186    -28564.32    -28906.08    197.36191   -907.89546    175721.39   0.50772015    1303.0263 
  274000      2790000    -26724.61    288.60438    1889.1636   -28613.774   -28678.555    187.84091   -762.45056    175721.39   0.50772015    1307.7662 
  275000      2800000   -26654.395    297.50943    1947.4548   -28601.849   -28833.187    193.63684   -850.18874    175721.39   0.50772015    1312.1861 
  276000      2810000   -26773.462     289.5941    1895.6421   -28669.105   -28376.997    188.48508   -625.71699    175721.39   0.50772015     1316.624 
  277000      2820000   -26657.905    295.68373     1935.504   -28593.409     -29353.8    192.44857   -1051.9679    175721.39   0.50772015     1321.071 
  278000      2830000   -26763.559    288.57368    1888.9626   -28652.522   -28539.928    187.82093   -693.15834    175721.39   0.50772015    1325.5228 
  279000      2840000   -26671.796    286.60148    1876.0528   -28547.849   -29389.086     186.5373   -1060.3161    175721.39   0.50772015    1330.1056 
  280000      2850000   -26744.135    286.62271    1876.1918   -28620.327   -28787.999    186.55112   -797.53821    175721.39   0.50772015    1334.5917 
  281000      2860000   -26676.416    300.20507       1965.1   -28641.516   -28629.491    195.39133   -762.11138    175721.39   0.50772015     1339.143 
  282000      2870000   -26819.065    288.38807    1887.7476   -28706.813   -29543.542    187.70012   -1063.1208    175721.39   0.50772015      1343.64 
  283000      2880000   -26684.722    298.65524    1954.9551   -28639.677   -28631.276     194.3826   -759.56701    175721.39   0.50772015     1348.091 
  284000      2890000   -26748.624    290.05683     1898.671   -28647.295   -29608.288    188.78625   -1115.8723    175721.39   0.50772015    1352.5996 
  285000      2900000   -26735.159    290.63859    1902.4792   -28637.638   -29029.778    189.16489   -895.38559    175721.39   0.50772015    1357.0677 
  286000      2910000   -26650.519    295.62347    1935.1095   -28585.629   -29110.892    192.40935   -960.06435    175721.39   0.50772015    1361.5779 
  287000      2920000   -26709.281    296.00788    1937.6258   -28646.907   -29474.019    192.65955   -1078.8313    175721.39   0.50772015    1366.1058 
  288000      2930000   -26669.678    300.54817    1967.3459   -28637.023    -28681.38    195.61463    -784.9884    175721.39   0.50772015    1370.5754 
  289000      2940000   -26712.698    289.09557    1892.3788   -28605.077   -28427.121     188.1606   -668.98647    175721.39   0.50772015    1375.0296 
  290000      2950000   -26657.966    290.81494    1903.6335     -28561.6   -28487.911    189.27967   -714.06439    175721.39   0.50772015    1379.7803 
  291000      2960000   -26628.964     299.1649    1958.2912   -28587.255   -28917.617    194.71432   -893.05736    175721.39   0.50772015    1384.2926 
  292000      2970000    -26624.22    297.89993    1950.0109   -28574.231   -28828.954    193.89101    -860.3113    175721.39   0.50772015    1388.7739 
  293000      2980000     -26538.1    298.66351    1955.0092   -28493.109   -29043.527    194.38799    -977.6451    175721.39   0.50772015    1393.4523 
  294000      2990000   -26672.694    290.44111    1901.1865   -28573.881   -28597.009    189.03636   -750.88882    175721.39   0.50772015    1398.0977 
  295000      3000000   -26609.696    294.40293    1927.1201   -28536.817   -28017.393    191.61495   -549.29862    175721.39   0.50772015    1402.8075 
  296000      3010000     -26720.3    295.94373    1937.2059   -28657.506   -28828.891    192.61779   -822.79533    175721.39   0.50772015    1407.3101 
  297000      3020000   -26587.389    308.79262    2021.3129   -28608.701   -28752.953    200.98062   -845.02717    175721.39   0.50772015    1411.7811 
  298000      3030000   -26752.819    290.60844    1902.2818     -28655.1   -28521.547    189.14527   -690.17736    175721.39   0.50772015    1416.2416 
  299000      3040000   -26731.093    290.18046    1899.4803   -28630.573   -28744.293    188.86671   -785.57274    175721.39   0.50772015    1420.7169 
  300000      3050000   -26772.687    289.19444     1893.026   -28665.713   -28884.909    188.22495    -824.2122    175721.39   0.50772015    1425.2026 
  301000      3060000    -26744.71    294.23082    1925.9934   -28670.703   -28975.876    191.50293   -870.62563    175721.39   0.50772015    1429.6862 
  302000      3070000   -26785.599    285.21543      1866.98   -28652.579   -29090.379    185.63518   -899.35041    175721.39   0.50772015    1434.1657 
  303000      3080000    -26710.29    291.74098    1909.6953   -28619.985   -28662.111    189.88239   -761.62182    175721.39   0.50772015    1438.6338 
  304000      3090000   -26650.631    301.07251    1970.7781   -28621.409    -28898.05    195.95591   -876.96746    175721.39   0.50772015    1443.0887 
  305000      3100000   -26752.227    291.07336    1905.3252   -28657.552   -28669.771    189.44787   -748.24701    175721.39   0.50772015    1447.5159 
  306000      3110000   -26749.614    295.46609    1934.0793   -28683.693    -28481.44    192.30691   -675.77764    175721.39   0.50772015    1452.0874 
  307000      3120000   -26794.699    292.27479    1913.1895   -28707.888   -28686.127    190.22983   -738.05604    175721.39   0.50772015    1456.5691 
  308000      3130000   -26832.513    293.97837    1924.3409   -28756.854   -28841.739    191.33862   -784.02196    175721.39   0.50772015    1460.9931 
  309000      3140000   -26679.626    291.71759    1909.5422   -28589.168   -28589.262    189.86717   -745.16116    175721.39   0.50772015    1465.4032 
  310000      3150000   -26804.789    288.35734    1887.5465   -28692.335   -29246.544    187.68012    -952.7998    175721.39   0.50772015    1469.8099 
  311000      3160000   -26737.049    290.40303    1900.9373   -28637.986   -29384.167    189.01158   -1032.9346    175721.39   0.50772015    1474.3995 
  312000      3170000   -26740.501    293.94245    1924.1058   -28664.607   -29239.069    191.31524   -974.96858    175721.39   0.50772015    1478.9043 
  313000      3180000   -26815.437    288.38085    1887.7004   -28703.137   -29055.634    187.69542   -874.14952    175721.39   0.50772015    1483.3674 
  314000      3190000    -26681.76    297.02082    1944.2564   -28626.016   -28733.633    193.31883   -800.66329    175721.39   0.50772015    1487.8877 
  315000      3200000   -26695.937    297.82951    1949.5499   -28645.487   -28779.467    193.84517   -813.01641    175721.39   0.50772015    1492.4298 
  316000      3210000   -26689.226    297.14404    1945.0629   -28634.289   -28646.704    193.39902   -763.82932    175721.39   0.50772015    1496.8589 
  317000      3220000   -26638.888    290.29664    1900.2408   -28539.128   -28521.366    188.94233   -734.56378    175721.39   0.50772015    1501.3508 
  318000      3230000   -26658.657    294.64102    1928.6786   -28587.335   -28716.223    191.76991   -802.88473    175721.39   0.50772015    1505.8177 
  319000      3240000    -26677.51    293.79843     1923.163   -28600.673   -29049.099     191.2215   -925.42024    175721.39   0.50772015    1510.3847 
  320000      3250000   -26712.774    284.37747    1861.4948   -28574.269   -28656.792    185.08978   -758.57714    175721.39   0.50772015    1514.7817 
  321000      3260000   -26641.905    288.51755    1888.5951     -28530.5   -29450.871    187.78439   -1096.0894    175721.39   0.50772015    1519.2492 
  322000      3270000   -26636.973    288.21011    1886.5827   -28523.556   -28302.569    187.58429   -649.93362    175721.39   0.50772015    1523.6893 
  323000      3280000    -26759.78    290.86344    1903.9511   -28663.731   -28873.519    189.31124   -824.80394    175721.39   0.50772015    1528.1005 
  324000      3290000   -26833.942    288.63615    1889.3715   -28723.313   -28585.533    187.86159   -683.49008    175721.39   0.50772015    1532.6978 
  325000      3300000   -26796.524     293.5212    1921.3484   -28717.873   -28375.045    191.04107   -615.95587    175721.39   0.50772015    1537.1557 
  326000      3310000   -26702.824    293.48111    1921.0859    -28623.91   -28130.686    191.01497   -557.16725    175721.39   0.50772015    1541.6141 
  327000      3320000   -26826.517    291.36604     1907.241   -28733.758   -29113.174    189.63836   -892.27847    175721.39   0.50772015    1546.0884 
  328000      3330000    -26670.13    303.74986    1988.3037   -28658.433   -28705.279    197.69848   -794.13762    175721.39   0.50772015    1550.5513 
  329000      3340000   -26758.757     293.1985     1919.236   -28677.993   -28459.142    190.83103   -663.50896    175721.39   0.50772015    1555.0297 
  330000      3350000   -26786.614    278.72054    1824.4653   -28611.079   -29456.177    181.40791    -1041.693    175721.39   0.50772015    1559.4726 
  331000      3360000   -26656.619    301.39506    1972.8895   -28629.508   -28425.061    196.16584    -690.0656    175721.39   0.50772015    1563.9176 
  332000      3370000    -26786.16    289.48001    1894.8953   -28681.055     -28573.3    188.41082   -697.36147    175721.39   0.50772015    1568.3537 
  333000      3380000   -26695.256    287.41457    1881.3752   -28576.632   -29433.507    187.06651   -1068.4954    175721.39   0.50772015    1573.1026 
  334000      3390000   -26776.259    290.97424    1904.6763   -28680.935   -29027.519    189.38335   -878.46644    175721.39   0.50772015    1577.5766 
  335000      3400000   -26798.822    283.99563    1858.9953   -28657.817   -28495.376    184.84126   -662.01427    175721.39   0.50772015    1582.1253 
  336000      3410000   -26784.416    299.60806    1961.1921   -28745.608   -28579.746    195.00275   -700.55753    175721.39   0.50772015    1586.4824 
  337000      3420000   -26754.768    293.08062    1918.4644   -28673.233    -28488.19    190.75431   -676.40008    175721.39   0.50772015    1590.8621 
  338000      3430000   -26821.672    286.50534    1875.4236   -28697.096    -28662.35    186.47473   -718.25272    175721.39   0.50772015    1595.1892 
  339000      3440000   -26876.396    290.88221    1904.0739    -28780.47   -28988.332    189.32345   -824.10082    175721.39   0.50772015    1599.6159 
  340000      3450000   -26808.116    298.50975    1954.0027   -28762.119   -28944.646    194.28791   -833.69731    175721.39   0.50772015     1603.978 
  341000      3460000    -26878.71    286.79725    1877.3343   -28756.045   -29197.692    186.66472   -904.89207    175721.39   0.50772015    1608.8288 
  342000      3470000   -26784.084    296.69191    1942.1034   -28726.187   -29011.528    193.10475   -869.17287    175721.39   0.50772015      1613.22 
  343000      3480000   -26724.629    297.05618    1944.4879   -28669.117   -28743.569    193.34184   -787.81265    175721.39   0.50772015    1617.6612 
  344000      3490000   -26650.242    289.63808      1895.93   -28546.172   -28942.453     188.5137   -894.44582    175721.39   0.50772015    1622.0868 
  345000      3500000   -26833.263    289.06089    1892.1518   -28725.415   -29307.456    188.13803   -965.45728    175721.39   0.50772015    1626.4652 
  346000      3510000   -26744.986    303.29692    1985.3389   -28730.325    -28690.68    197.40369    -759.2311    175721.39   0.50772015    1630.9347 
  347000      3520000   -26815.676     295.9977    1937.5591   -28753.235   -29156.555    192.65292   -913.43676    175721.39   0.50772015    1635.3116 
  348000      3530000   -26771.368    295.56325    1934.7153   -28706.083   -29112.589    192.37015   -913.57022    175721.39   0.50772015    1639.7387 
  349000      3540000   -26731.335    295.42891     1933.836   -28665.171   -28864.773    192.28272   -832.49097    175721.39   0.50772015    1644.1223 
  350000      3550000   -26830.142    286.94148    1878.2784    -28708.42   -29003.261    186.75859   -847.97486    175721.39   0.50772015    1648.5644 
  351000      3560000   -26781.671    287.67331    1883.0689    -28664.74   -28958.274    187.23491   -849.33444    175721.39   0.50772015    1652.9949 
  352000      3570000   -26760.847     295.4785    1934.1606   -28695.008   -28812.047    192.31499   -800.40082    175721.39   0.50772015    1657.4519 
  353000      3580000   -26650.275    290.26607    1900.0408   -28550.315   -28566.035    188.92244   -747.55066    175721.39   0.50772015    1661.8515 
  354000      3590000   -26826.652    292.76968     1916.429   -28743.081   -29076.668    190.55193   -877.98121    175721.39   0.50772015    1666.2712 
  355000      3600000    -26702.82    292.97441    1917.7692    -28620.59   -28717.966    190.68518   -786.33202    175721.39   0.50772015    1670.6684 
  356000      3610000   -26723.196    294.20426    1925.8196   -28649.016   -29524.074    191.48564   -1092.9334    175721.39   0.50772015    1675.0372 
  357000      3620000   -26831.439    287.76986    1883.7009    -28715.14   -29554.654    187.29775   -1062.6283    175721.39   0.50772015    1679.4259 
  358000      3630000   -26790.417    289.15591    1892.7738   -28683.191   -29128.362    188.19988    -912.2917    175721.39   0.50772015    1683.8028 
  359000      3640000   -26827.722    292.03807      1911.64   -28739.362   -29156.954    190.07575   -908.89174    175721.39   0.50772015      1688.17 
  360000      3650000   -26629.796     298.7625    1955.6572   -28585.453   -28226.456    194.45242   -623.03449    175721.39   0.50772015    1692.7276 
  361000      3660000   -26709.473    288.24024    1886.7799   -28596.253   -28739.617     187.6039   -792.18439    175721.39   0.50772015    1697.1554 
  362000      3670000   -26823.589    288.05981    1885.5989   -28709.188   -28570.376    187.48647   -681.61546    175721.39   0.50772015    1701.5285 
  363000      3680000   -26786.529    302.26358    1978.5747   -28765.103   -29441.582    196.73113   -1036.0309    175721.39   0.50772015     1705.882 
  364000      3690000   -26819.295    287.48478    1881.8348   -28701.129   -29090.769    187.11221   -886.35434    175721.39   0.50772015    1710.2194 
  365000      3700000   -26682.675    292.83104    1916.8307   -28599.505   -28888.236    190.59187   -860.63405    175721.39   0.50772015    1714.6005 
  366000      3710000   -26766.045    291.00494    1904.8773   -28670.923   -29093.167    189.40333   -908.06843    175721.39   0.50772015    1718.9994 
  367000      3720000   -26770.649    294.26366    1926.2084   -28696.858   -28929.506     191.5243   -842.40959    175721.39   0.50772015    1723.3516 
  368000      3730000   -26709.238    294.07528    1924.9753   -28634.213   -28710.178    191.40169    -780.7889    175721.39   0.50772015    1727.7937 
  369000      3740000   -26774.235    297.71292    1948.7868   -28723.021   -29178.473    193.76929   -938.16027    175721.39   0.50772015    1732.1617 
  370000      3750000    -26742.66     302.5813    1980.6545   -28723.315   -29274.305    196.93792   -987.87574    175721.39   0.50772015    1736.5383 
  371000      3760000   -26664.199    294.35836    1926.8283   -28591.027   -29203.289    191.58594   -990.78066    175721.39   0.50772015    1740.9371 
  372000      3770000   -26673.096    295.49783    1934.2871   -28607.384    -29278.57    192.32758   -1016.6843    175721.39   0.50772015    1745.3317 
  373000      3780000   -26753.073    295.29573    1932.9642   -28686.037   -28892.323    192.19603   -834.75891    175721.39   0.50772015    1749.8903 
  374000      3790000   -26687.206    293.46416     1920.975    -28608.18   -28282.254    191.00394   -622.40529    175721.39   0.50772015    1754.2517 
  375000      3800000   -26796.372     282.1313    1846.7917   -28643.163   -28230.939    183.62784   -559.78392    175721.39   0.50772015    1758.6599 
  376000      3810000   -26786.545    293.26969     1919.702   -28706.247   -29062.556    190.87736   -888.12466    175721.39   0.50772015    1763.0554 
  377000      3820000   -26794.591    282.45562    1848.9146   -28643.506   -29601.534    183.83893      -1095.3    175721.39   0.50772015    1767.4465 
  378000      3830000   -26685.683    298.59154    1954.5381   -28640.221   -29040.187    194.34114    -918.7532    175721.39   0.50772015    1771.8505 
  379000      3840000   -26768.786    288.01937    1885.3342   -28654.121   -28371.104    187.46015   -625.24199    175721.39   0.50772015    1776.1816 
  380000      3850000   -26676.115    295.52748    1934.4812   -28610.596   -28717.344    192.34687   -796.50981    175721.39   0.50772015    1780.5357 
  381000      3860000   -26823.145    291.84246    1910.3596   -28733.505   -29906.441    189.94844   -1203.1358    175721.39   0.50772015    1784.9003 
  382000      3870000   -26779.021    288.74327    1890.0727   -28669.094   -28967.685    187.93131   -854.04069    175721.39   0.50772015    1789.3063 
  383000      3880000   -26907.061    291.78132    1909.9594    -28817.02   -28528.343    189.90865   -632.64204    175721.39   0.50772015    1793.6392 
  384000      3890000    -26840.42    300.03446    1963.9833   -28804.404   -28865.696    195.28029   -790.28501    175721.39   0.50772015    1797.9745 
  385000      3900000   -26785.394    290.16625    1899.3873   -28684.781   -28884.467    188.85747   -819.08121    175721.39   0.50772015    1802.3269 
  386000      3910000   -26888.272    287.82545    1884.0648   -28772.337   -29238.438    187.33394   -917.06057    175721.39   0.50772015    1806.7575 
  387000      3920000    -26763.76    295.81181    1936.3423   -28700.102   -28939.296    192.53193   -848.91831    175721.39   0.50772015    1811.1889 
  388000      3930000   -26763.511    289.05353    1892.1036   -28655.615   -28739.541    188.13324   -771.06862    175721.39   0.50772015    1815.5353 
  389000      3940000   -26862.992    285.96035    1871.8561   -28734.849   -29108.978    186.12002    -876.4083    175721.39   0.50772015    1819.9577 
  390000      3950000   -26740.219    298.29792    1952.6161   -28692.835   -28803.945    194.15004   -805.28838    175721.39   0.50772015    1824.3244 
  391000      3960000   -26781.086    290.78175    1903.4163   -28684.502   -28736.035    189.25807   -762.84276    175721.39   0.50772015    1828.7162 
  392000      3970000   -26810.011    291.52813     1908.302   -28718.313   -28739.247    189.74386   -752.80902    175721.39   0.50772015    1833.1909 
  393000      3980000   -26858.561    290.96235    1904.5985   -28763.159   -29479.547    189.37561   -1022.7375    175721.39   0.50772015    1837.6722 
  394000      3990000   -26778.577    291.81091    1910.1531    -28688.73   -28744.598    189.92791   -767.16293    175721.39   0.50772015    1842.0767 
  395000      4000000   -26895.095    288.95499    1891.4586   -28786.554   -28570.526    188.06911   -653.77159    175721.39   0.50772015    1846.4536 
  396000      4010000   -26708.367    293.92851    1924.0145   -28632.382   -29033.994    191.30616   -907.48517    175721.39   0.50772015     1850.852 
  397000      4020000   -26862.067    292.39871    1914.0007   -28776.067   -28960.264    190.31048   -818.73959    175721.39   0.50772015    1855.2211 
  398000      4030000   -26775.525    298.95191     1956.897   -28732.422   -28956.067     194.5757    -850.8713    175721.39   0.50772015    1859.6101 
  399000      4040000   -26825.933    299.09486    1957.8328   -28783.766   -28991.667    194.66874   -845.09307    175721.39   0.50772015    1864.0114 
  400000      4050000   -26708.665    288.68647    1889.7009   -28598.365   -29095.311    187.89433   -931.29576    175721.39   0.50772015    1868.3953 
  401000      4060000   -26694.531    296.28084    1939.4125   -28633.943   -29022.185     192.8372   -908.27632    175721.39   0.50772015    1872.9126 
  402000      4070000   -26704.536    287.54895    1882.2549   -28586.791   -29038.358    187.15397   -910.68281    175721.39   0.50772015    1877.3444 
  403000      4080000   -26869.668    288.92676    1891.2738   -28760.941   -29481.269    188.05073   -1019.0757    175721.39   0.50772015    1881.7054 
  404000      4090000   -26920.065    287.37094    1881.0896   -28801.155   -28976.947    187.03811   -802.61766    175721.39   0.50772015    1886.0241 
  405000      4100000   -26736.034    290.81362    1903.6249   -28639.659   -28508.841    189.27881   -691.76895    175721.39   0.50772015    1890.5262 
  406000      4110000    -26824.69    293.59842    1921.8538   -28746.544   -29052.507    191.09132   -869.31862    175721.39   0.50772015    1894.9887 
  407000      4120000   -26763.242    289.06163    1892.1566   -28655.398    -28539.84    188.13851   -693.24797    175721.39   0.50772015    1899.5193 
  408000      4130000   -26833.423    293.17866    1919.1062   -28752.529   -28904.682    190.81812   -808.22804    175721.39   0.50772015     1903.899 
  409000      4140000    -26743.76    292.83579    1916.8618   -28660.621   -29447.596    190.59496   -1055.0666    175721.39   0.50772015    1908.5891 
  410000      4150000   -26759.142    293.43031    1920.7534   -28679.895   -28569.855    190.98191   -706.56001    175721.39   0.50772015    1912.9615 
  411000      4160000   -26811.502    284.85065    1864.5922   -28676.095   -29087.964    185.39776    -888.3004    175721.39   0.50772015    1917.3584 
  412000      4170000   -26793.435    292.49843    1914.6534   -28708.088   -28875.032    190.37538   -812.26194    175721.39   0.50772015    1921.7379 
  413000      4180000   -26683.659    292.25564    1913.0642   -28596.723    -28977.67    190.21736   -895.14812    175721.39   0.50772015    1926.1763 
  414000      4190000   -26742.472    290.82905    1903.7259   -28646.198   -29333.644    189.28886   -1011.1038    175721.39   0.50772015    1930.7337 
  415000      4200000   -26706.195    305.25231    1998.1385   -28704.334    -28324.36    198.67637   -631.42559    175721.39   0.50772015    1935.1225 
  416000      4210000   -26754.765    292.44649    1914.3134   -28669.079   -29413.447    190.34158   -1037.4465    175721.39   0.50772015     1939.553 
  417000      4220000   -26630.353    298.41898    1953.4085   -28583.761   -28882.457    194.22883   -878.79597    175721.39   0.50772015     1943.893 
  418000      4230000   -26770.158    285.53728    1869.0867   -28639.244   -28958.436    185.84466   -853.89022    175721.39   0.50772015    1948.2468 
  419000      4240000   -26765.223    292.61059    1915.3876    -28680.61   -29258.597    190.44838   -972.94204    175721.39   0.50772015    1952.6321 
  420000      4250000   -26747.969    283.32949    1854.6349   -28602.603   -29157.573    184.40769   -940.25423    175721.39   0.50772015    1957.0486 
  421000      4260000   -26713.935    290.99623    1904.8202   -28618.756   -29251.609    189.39766   -990.22804    175721.39   0.50772015    1961.4725 
  422000      4270000   -26836.124    290.33221    1900.4736   -28736.597   -29447.638    188.96548   -1019.0416    175721.39   0.50772015     1965.885 
[...]
 1378000     13830000   -27415.486    259.73843    1700.2111   -29115.697   -29500.479    169.05323    -813.5873    175721.39   0.50772015    6569.1788 
 1379000     13840000   -27399.937    276.92043     1812.682   -29212.619   -28901.994     180.2363   -586.11888    175721.39   0.50772015    6573.8701 
 1380000     13850000   -27323.544    275.56349    1803.7997   -29127.343   -29355.001    179.35312   -792.69698    175721.39   0.50772015    6578.3586 
 1381000     13860000   -27338.971    267.14781    1748.7119   -29087.683   -29629.468    173.87569     -893.777    175721.39   0.50772015    6582.8873 
 1382000     13870000   -27269.012    271.15052    1774.9131   -29043.925   -29273.494     176.4809   -782.17071    175721.39   0.50772015    6587.4701 
 1383000     13880000   -27274.198    274.71869    1798.2698   -29072.467   -29357.981    178.80328   -813.11501    175721.39   0.50772015    6592.0058 
 1384000     13890000   -27329.528    266.41548    1743.9182   -29073.446   -29187.914    173.39905   -725.16232    175721.39   0.50772015    6596.4626 
 1385000     13900000   -27256.722    276.02688     1806.833   -29063.555   -29434.757    179.65472   -849.89308    175721.39   0.50772015    6601.1499 
 1386000     13910000   -27371.161    273.61283     1791.031   -29162.192   -29930.347    178.08351   -998.62252    175721.39   0.50772015    6609.5142 
 1387000     13920000   -27347.295    271.92289    1779.9688   -29127.264   -29591.008     176.9836   -875.52152    175721.39   0.50772015    6616.0719 
 1388000     13930000   -27191.823    277.73218    1817.9956   -29009.819   -29239.476    180.76463   -799.01663    175721.39   0.50772015    6622.4142 
 1389000     13940000   -27336.552    271.53857    1777.4532   -29114.005   -29878.677    176.73346   -991.96503    175721.39   0.50772015     6629.503 
 1390000     13950000   -27270.105    281.95128    1845.6133   -29115.718   -28982.555    183.51067   -668.21683    175721.39   0.50772015    6634.0207 
 1391000     13960000   -27305.872     271.1257    1774.7506   -29080.622   -29381.826    176.46474   -810.06006    175721.39   0.50772015     6638.595 
 1392000     13970000    -27234.46    270.20315    1768.7117   -29003.171   -29380.518    175.86429   -837.41529    175721.39   0.50772015    6643.2407 
 1393000     13980000    -27215.37    279.75579    1831.2419   -29046.612   -29476.029    182.08172   -882.13394    175721.39   0.50772015    6647.8569 
 1394000     13990000   -27302.185    268.45795    1757.2878   -29059.473   -29844.603    174.72841   -992.07956    175721.39   0.50772015    6652.3985 
 1395000     14000000   -27255.672    277.43647      1816.06   -29071.732   -29518.179    180.57217   -882.85508    175721.39   0.50772015     6656.895 
 1396000     14010000   -27359.566    271.81864    1779.2865   -29138.853   -29174.002    176.91575   -708.01264    175721.39   0.50772015    6661.3859 
 1397000     14020000   -27273.158    266.23435    1742.7325    -29015.89   -29713.342    173.28116    -952.1867    175721.39   0.50772015    6666.1088 
 1398000     14030000   -27331.413    271.44745    1776.8567    -29108.27   -29344.335    176.67416   -785.46405    175721.39   0.50772015    6670.8378 
 1399000     14040000   -27243.011    274.51907    1796.9631   -29039.974    -29347.61    178.67335   -821.23773    175721.39   0.50772015    6675.5557 
 1400000     14050000   -27343.787    278.46723    1822.8072   -29166.594   -29058.505    181.24304   -669.10206    175721.39   0.50772015    6680.1128 
 1401000     14060000   -27323.958    267.78699    1752.8959   -29076.854   -29149.813    174.29171    -712.4688    175721.39   0.50772015      6687.07 
 1402000     14070000   -27219.937    275.85275    1805.6932    -29025.63   -28795.577    179.54139   -614.83227    175721.39   0.50772015    6691.6945 
 1403000     14080000   -27342.522    265.83756    1740.1351   -29082.658   -28588.757     173.0229   -486.29424    175721.39   0.50772015     6696.588 
 1404000     14090000   -27364.656    268.18797    1755.5206   -29120.177   -29337.945    174.55269   -769.99895    175721.39   0.50772015    6701.1229 
 1405000     14100000   -27222.375    271.37764    1776.3998   -28998.775   -29641.225    176.62872   -943.86196    175721.39   0.50772015    6705.8671 
 1406000     14110000   -27197.523    275.66576    1804.4691   -29001.992    -29682.47    179.41968   -969.65364    175721.39   0.50772015     6710.409 
 1407000     14120000   -27274.877    273.10492    1787.7062   -29062.583   -28844.496    177.75293   -612.48258    175721.39   0.50772015    6714.9584 
 1408000     14130000   -27227.243    263.32596    1723.6946   -28950.938   -29663.177    171.38821   -950.52821    175721.39   0.50772015    6719.4967 
 1409000     14140000   -27366.785    267.92648    1753.8089   -29120.594    -29250.92     174.3825   -735.21009    175721.39   0.50772015      6724.03 
 1410000     14150000   -27307.488     272.2552    1782.1441   -29089.632    -29499.73    177.19989   -855.43666    175721.39   0.50772015    6728.5885 
 1411000     14160000   -27348.359    263.39302    1724.1335   -29072.493   -28905.896    171.43185    -607.7678    175721.39   0.50772015    6733.2563 
 1412000     14170000   -27329.076     269.5712     1764.575   -29093.651   -29145.859    175.45298   -708.92836    175721.39   0.50772015    6737.7915 
 1413000     14180000   -27320.975     270.0978    1768.0221   -29088.997   -29191.382    175.79572   -729.85327    175721.39   0.50772015    6742.3591 
 1414000     14190000   -27403.807    268.19042    1755.5366   -29159.343   -29671.127    174.55428   -884.73344    175721.39   0.50772015    6746.9518 
 1415000     14200000   -27301.349    280.44475    1835.7517   -29137.101   -28761.014    182.53013   -569.57699    175721.39   0.50772015    6751.6546 
 1416000     14210000   -27300.488    277.57958    1816.9968   -29117.485   -29071.102    180.66531    -690.9129    175721.39   0.50772015     6756.871 
 1417000     14220000   -27437.014      267.973    1754.1135   -29191.128   -29101.112    174.41278   -649.34929    175721.39   0.50772015    6764.5095 
 1418000     14230000   -27294.697    275.00204    1800.1246   -29094.822   -29193.366     178.9877   -740.88135    175721.39   0.50772015    6771.3493 
 1419000     14240000    -27331.27    274.00283    1793.5838   -29124.853   -28980.172    178.33735    -643.4197    175721.39   0.50772015    6777.5535 
 1420000     14250000   -27295.989    276.94732    1812.8581   -29108.847    -28744.52     180.2538   -565.23264    175721.39   0.50772015    6782.5672 
 1421000     14260000   -27385.975     270.3583    1769.7273   -29155.702   -29016.933    175.96527   -636.41751    175721.39   0.50772015     6787.516 
 1422000     14270000   -27342.928    270.87831    1773.1312   -29116.059   -28750.679    176.30372   -549.31983    175721.39   0.50772015    6792.6208 
 1423000     14280000   -27271.948    266.08553    1741.7583   -29013.707   -29157.372     173.1843    -735.7131    175721.39   0.50772015     6797.622 
 1424000     14290000    -27289.17    271.59605    1777.8294   -29066.999   -28834.938    176.77087   -603.17594    175721.39   0.50772015    6802.7684 
 1425000     14300000   -27372.526    275.59987    1804.0379   -29176.563   -28938.823     179.3768   -611.18659    175721.39   0.50772015    6809.0185 
 1426000     14310000   -27343.186    268.96398    1760.6003   -29103.786   -29537.178    175.05777    -856.1199    175721.39   0.50772015    6814.6345 
 1427000     14320000   -27372.661     270.7063    1772.0053   -29144.666   -29632.196    176.19177   -881.69511    175721.39   0.50772015    6821.5386 
 1428000     14330000   -27300.091    276.61613    1810.6901   -29110.782   -29181.109    180.03824   -733.99389    175721.39   0.50772015    6826.8221 
 1429000     14340000    -27345.43     273.0978    1787.6597    -29133.09   -29403.171     177.7483   -802.95319    175721.39   0.50772015    6831.9484 
 1430000     14350000   -27428.617    275.69924    1804.6883   -29233.305   -29640.723    179.44147   -863.18819    175721.39   0.50772015    6837.0188 
 1431000     14360000   -27335.407    269.42573    1763.6228   -29099.029   -29753.169     175.3583   -943.43757    175721.39   0.50772015    6841.8166 
 1432000     14370000    -27350.46    275.31202    1802.1536   -29152.614   -29023.538    179.18945   -652.85337    175721.39   0.50772015    6846.4268 
 1433000     14380000    -27339.78    275.20113    1801.4278   -29141.208   -29275.435    179.11728   -755.31367    175721.39   0.50772015     6851.171 
 1434000     14390000   -27378.306    271.33748    1776.1369   -29154.443   -29824.889    176.60258   -954.68368    175721.39   0.50772015    6855.7406 
 1435000     14400000   -27363.859    268.16404    1755.3639   -29119.223   -29509.371    174.53711   -837.20218    175721.39   0.50772015    6860.3814 
 1436000     14410000   -27273.258    272.14015     1781.391   -29054.649   -28903.728    177.12501   -636.22732    175721.39   0.50772015    6864.9754 
 1437000     14420000   -27345.069    264.92357    1734.1523   -29079.222   -28979.332    172.42803    -637.7072    175721.39   0.50772015    6869.6381 
 1438000     14430000   -27283.958    263.67118    1725.9543   -29009.913   -29158.592     171.6129   -731.50258    175721.39   0.50772015    6874.3633 
 1439000     14440000   -27246.499    279.02107    1826.4325   -29072.932   -29655.828    181.60352   -940.14633    175721.39   0.50772015    6878.9998 
 1440000     14450000   -27340.227    263.77586    1726.6396   -29066.867    -29508.96    171.68103   -846.26347    175721.39   0.50772015    6883.6083 
 1441000     14460000   -27245.715    272.27561    1782.2777   -29027.993   -28823.216    177.21317   -615.55837    175721.39   0.50772015    6888.3657 
 1442000     14470000    -27333.16    270.81333    1772.7058   -29105.865   -28889.666    176.26143    -607.3658    175721.39   0.50772015    6892.9721 
 1443000     14480000   -27291.495    272.87025    1786.1702   -29077.666   -29692.029     177.6002   -936.71455    175721.39   0.50772015    6897.5252 
 1444000     14490000   -27361.585    275.62238    1804.1852    -29165.77   -29279.731    179.39145   -748.48165    175721.39   0.50772015    6902.0365 
 1445000     14500000   -27295.378    268.30812    1756.3071   -29051.685   -29280.466    174.63089   -774.60332    175721.39   0.50772015    6906.6511 
 1446000     14510000   -27405.542    270.19789    1768.6773    -29174.22   -28987.246    175.86087   -617.19817    175721.39   0.50772015     6911.345 
 1447000     14520000   -27344.725    267.18349    1748.9454    -29093.67   -29378.865    173.89892   -793.74379    175721.39   0.50772015    6916.4092 
 1448000     14530000   -27288.826    269.40147     1763.464    -29052.29    -29344.73    175.34251   -802.23646    175721.39   0.50772015    6921.0754 
 1449000     14540000   -27260.841    269.38947    1763.3854   -29024.227   -29113.587     175.3347    -722.9616    175721.39   0.50772015    6925.6779 
 1450000     14550000   -27300.079    276.25874    1808.3507    -29108.43   -29447.327    179.80563   -837.87972    175721.39   0.50772015    6930.3019 
 1451000     14560000   -27398.047    268.21067    1755.6692   -29153.716   -29851.733    174.56747   -957.45521    175721.39   0.50772015    6934.9373 
 1452000     14570000   -27299.154    273.20523    1788.3629   -29087.516   -29496.846    177.81823   -857.56358    175721.39   0.50772015    6939.4205 
 1453000     14580000   -27373.764     270.8099    1772.6834   -29146.448   -29425.057     176.2592   -800.43692    175721.39   0.50772015    6943.9341 
 1454000     14590000    -27287.11    275.12503    1800.9296   -29088.039    -29396.75    179.06774    -823.2048    175721.39   0.50772015    6948.6803 
 1455000     14600000   -27378.562    271.65608    1778.2224   -29156.784   -29170.084    176.80995   -699.07159    175721.39   0.50772015    6953.6693 
 1456000     14610000   -27285.232    278.59232     1823.626   -29108.858   -29658.373    181.32446   -926.02591    175721.39   0.50772015    6958.4766 
 1457000     14620000   -27418.448    270.83455    1772.8447   -29191.293   -29717.636    176.27524   -897.16839    175721.39   0.50772015    6965.8903 
 1458000     14630000   -27378.119     265.5028    1737.9438   -29116.062   -28994.438    172.80502    -630.7056    175721.39   0.50772015    6973.2776 
 1459000     14640000   -27495.384    265.69223    1739.1838   -29234.567   -29159.753    172.92831   -649.45521    175721.39   0.50772015    6981.2458 
 1460000     14650000   -27333.802    276.21762    1808.0815   -29141.884   -29116.896    179.77886    -695.7829    175721.39   0.50772015    6987.4689 
 1461000     14660000    -27336.64    276.54012    1810.1926   -29146.833   -29043.435    179.98877   -666.01002    175721.39   0.50772015     7000.933 
 1462000     14670000   -27443.591    265.79028    1739.8256   -29183.416    -29080.62    172.99213   -638.78691    175721.39   0.50772015    7012.9039 
 1463000     14680000   -27349.999    269.31307    1762.8854   -29112.885   -29473.465    175.28497   -828.59981    175721.39   0.50772015    7019.3061 
 1464000     14690000   -27310.859     270.4939    1770.6149   -29081.474   -29175.738    176.05353   -727.69637    175721.39   0.50772015    7024.2771 
 1465000     14700000   -27309.549    269.47803    1763.9652   -29073.514   -29260.792    175.39234   -761.39653    175721.39   0.50772015    7029.4698 
 1466000     14710000   -27336.826    274.42731    1796.3625   -29133.189   -29625.856    178.61363   -893.20455    175721.39   0.50772015    7034.6803 
 1467000     14720000   -27369.077    269.91414    1766.8199   -29135.897   -29258.782    175.67619   -737.38362    175721.39   0.50772015    7039.6718 
 1468000     14730000    -27359.07    271.45636     1776.915   -29135.985    -29323.01    176.67996   -766.35102    175721.39   0.50772015    7044.8241 
 1469000     14740000   -27299.743    278.06088    1820.1473   -29119.891   -29042.231    180.97857   -679.93782    175721.39   0.50772015    7050.0696 
 1470000     14750000   -27442.323    260.78956    1707.0917   -29149.415   -29575.524    169.73737   -832.39811    175721.39   0.50772015    7055.0777 
 1471000     14760000   -27354.863     277.3467    1815.4723   -29170.335   -28638.425    180.51374   -500.86011    175721.39   0.50772015    7060.1542 
 1472000     14770000   -27323.219    272.44527    1783.3883   -29106.607   -29018.253     177.3236   -661.42069    175721.39   0.50772015    7064.9142 
 1473000     14780000   -27376.894    267.44796    1750.6766    -29127.57   -29537.369    174.07105   -843.04123    175721.39   0.50772015    7069.5714 
 1474000     14790000   -27415.699    270.30425    1769.3735   -29185.072   -29311.377     175.9301   -739.71443    175721.39   0.50772015    7074.0872 
 1475000     14800000   -27411.165    270.97365    1773.7553    -29184.92   -28941.993    176.36578    -597.3462    175721.39   0.50772015    7079.6741 
 1476000     14810000    -27318.24    278.06564    1820.1784   -29138.418    -29048.96    180.98166    -675.3461    175721.39   0.50772015    7092.4034 
 1477000     14820000    -27416.45     260.0956    1702.5491   -29118.999   -29466.083     169.2857   -799.78948    175721.39   0.50772015    7097.5994 
 1478000     14830000    -27293.13    274.67975    1798.0149   -29091.145   -29360.603    178.77793   -806.75078    175721.39   0.50772015    7103.1042 
 1479000     14840000   -27304.543    274.44491    1796.4776   -29101.021   -28657.873    178.62508   -528.08395    175721.39   0.50772015    7108.3172 
 1480000     14850000    -27383.48    267.73339     1752.545   -29136.025   -29015.562    174.25682   -636.85639    175721.39   0.50772015    7112.9536 
 1481000     14860000   -27274.255    274.47544    1796.6775   -29070.933   -28376.549    178.64495   -430.12709    175721.39   0.50772015    7117.6665 
 1482000     14870000   -27291.871    272.12774    1781.3098   -29073.181   -28914.774    177.11693   -633.27455    175721.39   0.50772015    7122.5488 
 1483000     14880000   -27201.694    268.76722    1759.3123   -28961.007   -29117.026     174.9297   -747.38328    175721.39   0.50772015    7127.4093 
 1484000     14890000   -27324.315    263.07898    1722.0779   -29046.393   -28978.418    171.22745   -645.44914    175721.39   0.50772015    7132.5493 
 1485000     14900000    -27314.38    270.05302     1767.729   -29082.109   -28974.101    175.76658   -647.64164    175721.39   0.50772015    7137.2432 
 1486000     14910000   -27341.044    270.35138     1769.682   -29110.726   -28892.624    175.96077   -605.44342    175721.39   0.50772015    7143.0016 
 1487000     14920000   -27353.874    274.14113    1794.4892   -29148.363   -28844.482    178.42737   -581.65158    175721.39   0.50772015    7147.5537 
 1488000     14930000   -27263.407     272.8815    1786.2438   -29049.651   -29428.965    177.60752   -845.02445    175721.39   0.50772015    7152.2747 
 1489000     14940000   -27381.681    279.14214    1827.2251   -29208.906   -28825.164    181.68232   -563.26307    175721.39   0.50772015    7156.8216 
 1490000     14950000   -27318.982    271.37996    1776.4149   -29095.397   -28789.219    176.63023   -573.70255    175721.39   0.50772015    7162.0182 
 1491000     14960000   -27434.195    268.88656    1760.0934   -29194.289   -29087.887    175.00737   -645.28868    175721.39   0.50772015    7166.9665 
 1492000     14970000   -27378.768    274.09603    1794.1939   -29172.962   -29383.673    178.39801   -782.33611    175721.39   0.50772015    7172.1225 
 1493000     14980000   -27427.338    263.68067    1726.0165   -29153.354   -29084.159    171.61908   -646.50965    175721.39   0.50772015    7176.8304 
 1494000     14990000   -27442.115    270.33177    1769.5536   -29211.669   -29200.833    175.94801   -686.27121    175721.39   0.50772015    7181.5337 
 1495000     15000000   -27364.086    271.43655    1776.7854   -29140.871   -29096.915    176.66706   -676.16877    175721.39   0.50772015    7186.0628 
 1496000     15010000   -27447.306    274.72611    1798.3184   -29245.625   -29147.631     178.8081   -663.48536    175721.39   0.50772015    7190.5967 
 1497000     15020000   -27342.751    269.46034    1763.8494     -29106.6   -28700.513    175.38083   -529.81376    175721.39   0.50772015    7195.2764 
 1498000     15030000   -27224.468     276.0322    1806.8678   -29031.335   -28905.989    179.65819   -656.14808    175721.39   0.50772015    7199.8635 
 1499000     15040000   -27362.554    265.56714    1738.3651   -29100.919   -29579.863     172.8469   -865.21855    175721.39   0.50772015    7204.7074 
 1500000     15050000   -27273.468    275.77137    1805.1604   -29078.629   -29218.485    179.48842   -758.96696    175721.39   0.50772015    7209.9043 
Loop time of 7209.9 on 2 procs for 1500000 steps with 3375 atoms

Performance: 179.753 ns/day, 0.134 hours/ns, 208.047 timesteps/s
96.1% CPU use with 2 MPI tasks x no OpenMP threads

MPI task timing breakdown:
Section |  min time  |  avg time  |  max time  |%varavg| %total
---------------------------------------------------------------
Pair    | 6430.6     | 6437.2     | 6443.7     |   8.2 | 89.28
Neigh   | 287.03     | 288.34     | 289.66     |   7.7 |  4.00
Comm    | 296.08     | 301.59     | 307.1      |  31.7 |  4.18
Output  | 0.88546    | 0.91224    | 0.93903    |   2.8 |  0.01
Modify  | 173.12     | 173.4      | 173.68     |   2.1 |  2.41
Other   |            | 8.506      |            |       |  0.12

Nlocal:    1687.5 ave 1695 max 1680 min
Histogram: 1 0 0 0 0 0 0 0 0 1
Nghost:    232.5 ave 257 max 208 min
Histogram: 1 0 0 0 0 0 0 0 0 1
Neighs:    0 ave 0 max 0 min
Histogram: 2 0 0 0 0 0 0 0 0 0
FullNghs:  34194 ave 34988 max 33400 min
Histogram: 1 0 0 0 0 0 0 0 0 1

Total # of neighbors = 68388
Ave neighs/atom = 20.2631
Neighbor list builds = 150000
Dangerous builds = 150000



Total wall time: 2:01:00
