LAMMPS (11 Aug 2017)
####################################################################################
# External variables that have to be passed on call
# Temperature 	= temperature of the system
# trjFile	= name of the .xtc trajectory file
# dataFile	= name of the .data input for Lammps
# nRand		= random number as seed for the velocity creation
# Timestep	= timestep in fs
# Eps		= LJ epsilon of mW C interaction
# Sigma		= LJ epsilon of mW C interaction
# nTimesteps	= number of timesteps to run
# nStride       = stride of thermo and trajectory output
# pass variables to the script via ${variable_name}
#####################################################################################

units          real #read on lammps how this defines the units for energy, forces etc.
dimension      3 #simulation simension. 3D
newton         on
processors     * * * #(x y z) sets how splits into box between processors, * does auto
boundary       s s s #(x y z) periodic boundary conditions
atom_style     atomic #sets "style" of atoms being used in simulation. i.e. what attributes the atoms have (bonds, angles, spin..)
box tilt large
read_data      ${dataIN} #system set up, ie. type 1 and 2 atoms at certain positions and velocities
read_data      system.data 
  orthogonal box = (0 0 0) to (56 56 56)
  1 by 1 by 2 MPI processor grid
  reading atoms ...
  3375 atoms


#..but this file doesn't contain masses so need line below
####################################################################################
#mass - tell lammps atom masses. syntax: mass atom-type value
mass           1 18.015
mass           2 12.011

#groups - set the atoms in the simulation to belong to groups
#syntax: group "group name" type n
#set the groups by assigning "atom types" to them
group          mW 	type 1 #makes a group called "mW" (ie H20) from all type 1 atoms, which are
2197 atoms in group mW
#..defined in the file read by read_data
group          OH        type 2 #same but for the surface (type 2 is defined by read_data file)
1178 atoms in group OH

#set up interaction between the groups
pair_style sw #sw = stilinger-weber potential
pair_coeff * * ./mW-OH.sw mW OH  #file mW-OH.sw has potential definition in. Tell lammps to use this between group mW and OH defined above

#another interaction example - here set up Lenard-Jones interation between type 1 and type 2 atoms, then interaction between type 2 and type 2. You would also need a water-water interaction
#pair_coeff 1 2 lj/cut ${Eps} ${Sigma} # e.g. surface-water interaction
#pair_coeff 2 2 lj/cut 0.0    ${Sigma} # e.g. surface-surface interaction (set to zero strength for a surface of frozen atoms)


neighbor       2.0 bin

timestep       ${Timestep} #timestep for the equations of motion - Very important! Careful to use appropriate value for the model you are using
timestep       10 
min_style      cg #minimisation algrothim that will be used in any minimize command given to lammps
run_style      verlet #algorithm for the equations of motion "velocity-verlet" algorithm used

#make sure compute the correct temp. exclude the stationary surface
#syntax: compute name group attribute
compute        mWtemp mW temp #so mWtemp is the name we've given to temperature of the mW group (i.e. water) -> call in thermo_style with c_mWtemp

thermo         $(v_psStride*1000/v_Timestep) #how often outputs thermodynamic info. We don't want every timestep - too much information. Set up here so get information every v_psStride picoseconds
thermo         1000 
#thermo style: thermodynamic input - shown as table of values specified
thermo_style   custom step time etotal c_mWtemp ke pe enthalpy temp press vol density cpu
thermo_modify  flush yes

####################################################################################
#fix fZwalls all wall/reflect zhi EDGE #reflecting wall at top of sim - in case of evapouration
fix fMin OH setforce 0 0 0 #ensure forces between frozen surface are zero

#set wall for bottom of simulation - don't worry about
#fix wallz mW wall/lj93 zlo 0.001 0.5 2 5 xlo 0.001 0.5 2 5 ylo 0.001 0.5 2 5 zhi EDGE 0.5 2 5 xhi EDGE 0.5 2 5 yhi EDGE 0.5 2 5
#fix_modify wallz energy yes


############running a simulation######################################################
#1) the dump command tells lammps to save the positions and velocities of atoms - these can then be watched as a "trajectory" in the trajectoryfile ${trjFile}
#Put dump command where you wish to view from

dump d1 all xtc $(v_psStride*1000/v_Timestep) ${trjFile}
dump d1 all xtc 1000 ${trjFile}
dump d1 all xtc 1000 ./test1.xtc

#####equilibration phase of simulation####
#1st we minimised our setup - this gets us towards minimum energy config - stops the simulation exploding from the start from huge forces etc (e.g. if two atoms were very close together the force would be huge between them -> meaning they leave the box between one timestep and the other -> simulation crashes
#syntax: minimiza etol ftol maxiter maxeval - see lammps documentation self-explanatory
minimize 1e-13 1e-15 5000 50000
WARNING: Using 'neigh_modify every 1 delay 0 check yes' setting during minimization (../min.cpp:168)
Neighbor list info ...
  update every 1 steps, delay 0 steps, check yes
  max neighbors/atom: 2000, page size: 100000
  master list distance cutoff = 6.09869
  ghost atom cutoff = 6.09869
  binsize = 3.04935, bins = 19 19 19
  1 neighbor lists, perpetual/occasional/extra = 1 0 0
  (1) pair sw, perpetual
      attributes: full, newton on
      pair build: full/bin/atomonly
      stencil: full/bin/3d
      bin: standard
Per MPI rank memory allocation (min/avg/max) = 4.084 | 4.086 | 4.088 Mbytes
Step Time TotEng c_mWtemp KinEng PotEng Enthalpy Temp Press Volume Density CPU 
       0            0   -116.41568            0            0   -116.41568   -4056.2687            0   -1537.3739    175721.39   0.50772015            0 
      67          670   -22404.004            0            0   -22404.004   -23148.332            0    -290.4452    175721.39   0.50772015     0.235476 
Loop time of 0.235502 on 2 procs for 67 steps with 3375 atoms

96.2% CPU use with 2 MPI tasks x no OpenMP threads

Minimization stats:
  Stopping criterion = energy tolerance
  Energy initial, next-to-last, final = 
          -116.4156832     -22404.0036499     -22404.0036499
  Force two-norm initial, final = 0.000452967 0.000186917
  Force max component initial, final = 1.42248e-05 2.16255e-05
  Final line search alpha, max atom move = 1 2.16255e-05
  Iterations, force evaluations = 67 86

MPI task timing breakdown:
Section |  min time  |  avg time  |  max time  |%varavg| %total
---------------------------------------------------------------
Pair    | 0.19336    | 0.20012    | 0.20687    |   1.5 | 84.97
Neigh   | 0.008799   | 0.0088825  | 0.008966   |   0.1 |  3.77
Comm    | 0.011471   | 0.018176   | 0.02488    |   5.0 |  7.72
Output  | 0          | 0          | 0          |   0.0 |  0.00
Modify  | 0.000543   | 0.000546   | 0.000549   |   0.0 |  0.23
Other   |            | 0.007783   |            |       |  3.30

Nlocal:    1687.5 ave 1744 max 1631 min
Histogram: 1 0 0 0 0 0 0 0 0 1
Nghost:    337.5 ave 394 max 281 min
Histogram: 1 0 0 0 0 0 0 0 0 1
Neighs:    0 ave 0 max 0 min
Histogram: 2 0 0 0 0 0 0 0 0 0
FullNghs:  21989 ave 22892 max 21086 min
Histogram: 1 0 0 0 0 0 0 0 0 1

Total # of neighbors = 43978
Ave neighs/atom = 13.0305
Neighbor list builds = 6
Dangerous builds = 0

########set up gaussian velocities at a temp for the mW group##########
#just some initial configuration from which to start
velocity mW create ${T0} ${nRand} dist gaussian mom yes rot yes #initial set up, with random number
velocity mW create 280 ${nRand} dist gaussian mom yes rot yes 
velocity mW create 280 2222 dist gaussian mom yes rot yes 

##############equilibration###############
# - important step - once potential energy of system has a small variance then equilibrated system
#fix nvt command: runs nvt simulation (contstant number of particles, volume and controlled temperature)
#syntax: fix fixID groupID style-name keywords..
#keywords here are temp and tchain. temp: 3 arguements - start temp of sim, end temp of sim. temp damping parameter (how rapidly temperature is relaxed). tchain: one arguement - chain length
#This is all to do with the thermostat the simulation uses. Nose-Hoover style. Read info on lammps and elsewhere if want to properly understand. These are set up appropraitely so just use values here. Do at a contant temperature

timestep $(v_Timestep/2) #use half timestep for equilibration
timestep 5 
fix f1 mW nvt temp ${T0} ${T0} $(100*v_Timestep/2) tchain 10
fix f1 mW nvt temp 280 ${T0} $(100*v_Timestep/2) tchain 10
fix f1 mW nvt temp 280 280 $(100*v_Timestep/2) tchain 10
fix f1 mW nvt temp 280 280 500 tchain 10
fix_modify f1 temp mWtemp #makes temp become mWtemp - i.e. thermostat acts on the water
WARNING: Temperature for fix modify is not for group all (../fix_nh.cpp:1395)
run $(50*1000/v_Timestep*2) #rough rule for how long need to equilibrate for a timestep
run 10000 
Per MPI rank memory allocation (min/avg/max) = 2.971 | 2.973 | 2.974 Mbytes
Step Time TotEng c_mWtemp KinEng PotEng Enthalpy Temp Press Volume Density CPU 
      67            0   -20571.163          280    1832.8405   -22404.004   -20093.598    182.24066    186.35111    175721.39   0.50772015            0 
    1000         4665   -23031.076    390.27586    2554.6907   -25585.766   -24311.462    254.01476   -392.66202    223586.86   0.39902742     3.113926 
    2000         9665   -25499.835    306.74467    2007.9073   -27507.743    -26841.08    199.64769   -409.18972     224753.9   0.39695548     7.245417 
    3000        14665   -26362.571    285.49512    1868.8107   -28231.381   -27944.563    185.81721   -478.71584    226595.24   0.39372977    11.397889 
    4000        19665   -26678.693    277.54228    1816.7526   -28495.445   -28359.475    180.64103   -528.93551    217887.82   0.40946434     15.67599 
    5000        24665   -26754.437    286.81634    1877.4593   -28631.896   -28675.213    186.67715   -607.01603    216970.54   0.41119542     20.06257 
    6000        29665   -26815.764    278.36271     1822.123   -28637.887   -28684.376    181.17502   -581.10961    220488.12   0.40463537    24.549239 
    7000        34665   -26872.209    285.68362    1870.0446   -28742.253    -28888.81     185.9399   -626.77366    220614.23   0.40440407    28.891956 
    8000        39665   -27001.637    285.44055    1868.4535   -28870.091   -29055.798    185.78169   -639.48096    220257.62   0.40505882    32.718442 
    9000        44665   -27078.776    280.47465    1835.9475   -28914.723   -29743.787     182.5496   -817.68377    223479.57     0.399219     37.25835 
   10000        49665   -27054.912    285.49597    1868.8164   -28923.728   -29254.625    185.81777   -670.48174    224958.93   0.39659368    42.295388 
   10067        50000   -27070.786    281.80944    1844.6848   -28915.471   -29292.102    183.41835   -685.41233    222219.67   0.40148243    42.569856 
Loop time of 42.5699 on 2 procs for 10000 steps with 3375 atoms

Performance: 101.480 ns/day, 0.236 hours/ns, 234.908 timesteps/s
92.9% CPU use with 2 MPI tasks x no OpenMP threads

MPI task timing breakdown:
Section |  min time  |  avg time  |  max time  |%varavg| %total
---------------------------------------------------------------
Pair    | 36.922     | 37.696     | 38.471     |  12.6 | 88.55
Neigh   | 1.5694     | 1.5953     | 1.6213     |   2.1 |  3.75
Comm    | 1.7436     | 2.5517     | 3.3598     |  50.6 |  5.99
Output  | 0.008568   | 0.009755   | 0.010942   |   1.2 |  0.02
Modify  | 0.62522    | 0.63129    | 0.63736    |   0.8 |  1.48
Other   |            | 0.08535    |            |       |  0.20

Nlocal:    1687.5 ave 1715 max 1660 min
Histogram: 1 0 0 0 0 0 0 0 0 1
Nghost:    395 ave 422 max 368 min
Histogram: 1 0 0 0 0 0 0 0 0 1
Neighs:    0 ave 0 max 0 min
Histogram: 2 0 0 0 0 0 0 0 0 0
FullNghs:  29851 ave 31065 max 28637 min
Histogram: 1 0 0 0 0 0 0 0 0 1

Total # of neighbors = 59702
Ave neighs/atom = 17.6895
Neighbor list builds = 811
Dangerous builds = 138

####example of npt run - constant pressure instead of volume. System volume will change with time####
##this will likely be necessary for your simulation. If doing bulk liquid (i.e. periodic b.c in xy&z) then need appropraite density - equilibrate with npt then do production run nvt in this case.
#timestep $(v_Timestep/2)
#fix f1 mW npt temp 275 275 $(100*v_Timestep/2) tchain 10 iso 1.0 1.0 $(1000*v_Timestep/2) pchain 10
#fix_modify f1 temp mWtemp
#run $(50*1000/v_Timestep*2)


########production run##########
#after equilibrated - this is the data and trajectory you want as the results
#pass different T0 and T1 to cool as the sim goes -> "cooling ramp" simulation
#Max temperature change rate you should use for mW model is 0.5K/ns - so run simulation for long enough to obey this rule. i.e. 275K to 265K should be a 20ns simulation
unfix f1 #have to unfix the previous fix
fix f2 OH nvt temp ${T1} ${T1} $(100*v_Timestep) tchain 10
fix f2 OH nvt temp 260 ${T1} $(100*v_Timestep) tchain 10
fix f2 OH nvt temp 260 260 $(100*v_Timestep) tchain 10
fix f2 OH nvt temp 260 260 1000 tchain 10
#fix_modify f2 temp mWtemp #makes temp become mWtemp -> have to do everytime

#dump d1 all xtc $(v_psStride*1000/v_Timestep) ${trjFile} #uncomment to just watch production run
reset_timestep 0
run 0
Per MPI rank memory allocation (min/avg/max) = 2.983 | 2.983 | 2.983 Mbytes
Step Time TotEng c_mWtemp KinEng PotEng Enthalpy Temp Press Volume Density CPU 
       0        50000   -27070.786    281.80944    1844.6848   -28915.471   -29292.102    183.41835    -681.6866     223434.2   0.39930006            0 
Loop time of 3.5e-06 on 2 procs for 0 steps with 3375 atoms

85.7% CPU use with 2 MPI tasks x no OpenMP threads

MPI task timing breakdown:
Section |  min time  |  avg time  |  max time  |%varavg| %total
---------------------------------------------------------------
Pair    | 0          | 0          | 0          |   0.0 |  0.00
Neigh   | 0          | 0          | 0          |   0.0 |  0.00
Comm    | 0          | 0          | 0          |   0.0 |  0.00
Output  | 0          | 0          | 0          |   0.0 |  0.00
Modify  | 0          | 0          | 0          |   0.0 |  0.00
Other   |            | 3.5e-06    |            |       |100.00

Nlocal:    1687.5 ave 1717 max 1658 min
Histogram: 1 0 0 0 0 0 0 0 0 1
Nghost:    397 ave 424 max 370 min
Histogram: 1 0 0 0 0 0 0 0 0 1
Neighs:    0 ave 0 max 0 min
Histogram: 2 0 0 0 0 0 0 0 0 0
FullNghs:  29889 ave 31165 max 28613 min
Histogram: 1 0 0 0 0 0 0 0 0 1

Total # of neighbors = 59778
Ave neighs/atom = 17.712
Neighbor list builds = 0
Dangerous builds = 0

#set simulation to run
timestep ${Timestep}
timestep 10
run $(v_nsRunTime*1000000/v_Timestep) #nsRuntime -> how long sim will run in nanoseconds
run 1000000 
Per MPI rank memory allocation (min/avg/max) = 2.983 | 2.983 | 2.983 Mbytes
Step Time TotEng c_mWtemp KinEng PotEng Enthalpy Temp Press Volume Density CPU 
       0        50000   -27070.786    281.80944    1844.6848   -28915.471   -29292.102    183.41835    -681.6866     223434.2   0.39930006            0 
    1000        60000   -27070.786    281.80944    1844.6848   -28915.471   -29292.102    183.41835    -681.6866     223434.2   0.39930006     3.852455 
    2000        70000   -27070.786    281.80944    1844.6848   -28915.471   -29292.102    183.41835    -681.6866     223434.2   0.39930006     8.972572 
    3000        80000   -27070.786    281.80944    1844.6848   -28915.471   -29292.102    183.41835    -681.6866     223434.2   0.39930006    13.976101 
    4000        90000   -27070.786    281.80944    1844.6848   -28915.471   -29292.102    183.41835    -681.6866     223434.2   0.39930006    18.398106 
    5000       100000   -27070.786    281.80944    1844.6848   -28915.471   -29292.102    183.41835    -681.6866     223434.2   0.39930006    22.547061 
    6000       110000   -27070.786    281.80944    1844.6848   -28915.471   -29292.102    183.41835    -681.6866     223434.2   0.39930006    26.685902 
    7000       120000   -27070.786    281.80944    1844.6848   -28915.471   -29292.102    183.41835    -681.6866     223434.2   0.39930006    31.228129 
    8000       130000   -27070.786    281.80944    1844.6848   -28915.471   -29292.102    183.41835    -681.6866     223434.2   0.39930006    34.884514 
    9000       140000   -27070.786    281.80944    1844.6848   -28915.471   -29292.102    183.41835    -681.6866     223434.2   0.39930006    38.940926 
   10000       150000   -27070.786    281.80944    1844.6848   -28915.471   -29292.102    183.41835    -681.6866     223434.2   0.39930006    42.740389 
   11000       160000   -27070.786    281.80944    1844.6848   -28915.471   -29292.102    183.41835    -681.6866     223434.2   0.39930006    46.438554 
   12000       170000   -27070.786    281.80944    1844.6848   -28915.471   -29292.102    183.41835    -681.6866     223434.2   0.39930006    50.495836 
   13000       180000   -27070.786    281.80944    1844.6848   -28915.471   -29292.102    183.41835    -681.6866     223434.2   0.39930006    55.408612 
   14000       190000   -27070.786    281.80944    1844.6848   -28915.471   -29292.102    183.41835    -681.6866     223434.2   0.39930006    59.367768 
   15000       200000   -27070.786    281.80944    1844.6848   -28915.471   -29292.102    183.41835    -681.6866     223434.2   0.39930006    63.491349 
   16000       210000   -27070.786    281.80944    1844.6848   -28915.471   -29292.102    183.41835    -681.6866     223434.2   0.39930006    67.148735 
   17000       220000   -27070.786    281.80944    1844.6848   -28915.471   -29292.102    183.41835    -681.6866     223434.2   0.39930006    71.660645 
   18000       230000   -27070.786    281.80944    1844.6848   -28915.471   -29292.102    183.41835    -681.6866     223434.2   0.39930006    78.056782 
   19000       240000   -27070.786    281.80944    1844.6848   -28915.471   -29292.102    183.41835    -681.6866     223434.2   0.39930006    84.764833 
   20000       250000   -27070.786    281.80944    1844.6848   -28915.471   -29292.102    183.41835    -681.6866     223434.2   0.39930006    89.732503 
   21000       260000   -27070.786    281.80944    1844.6848   -28915.471   -29292.102    183.41835    -681.6866     223434.2   0.39930006    93.642554 
   22000       270000   -27070.786    281.80944    1844.6848   -28915.471   -29292.102    183.41835    -681.6866     223434.2   0.39930006    97.461932 
   23000       280000   -27070.786    281.80944    1844.6848   -28915.471   -29292.102    183.41835    -681.6866     223434.2   0.39930006    101.65885 
   24000       290000   -27070.786    281.80944    1844.6848   -28915.471   -29292.102    183.41835    -681.6866     223434.2   0.39930006    105.55277 
   25000       300000   -27070.786    281.80944    1844.6848   -28915.471   -29292.102    183.41835    -681.6866     223434.2   0.39930006    109.19283 
   26000       310000   -27070.786    281.80944    1844.6848   -28915.471   -29292.102    183.41835    -681.6866     223434.2   0.39930006    113.03477 
   27000       320000   -27070.786    281.80944    1844.6848   -28915.471   -29292.102    183.41835    -681.6866     223434.2   0.39930006    116.63376 
   28000       330000   -27070.786    281.80944    1844.6848   -28915.471   -29292.102    183.41835    -681.6866     223434.2   0.39930006    120.60887 
   29000       340000   -27070.786    281.80944    1844.6848   -28915.471   -29292.102    183.41835    -681.6866     223434.2   0.39930006    124.40604 
   30000       350000   -27070.786    281.80944    1844.6848   -28915.471   -29292.102    183.41835    -681.6866     223434.2   0.39930006    127.99354 
   31000       360000   -27070.786    281.80944    1844.6848   -28915.471   -29292.102    183.41835    -681.6866     223434.2   0.39930006     131.6168 
   32000       370000   -27070.786    281.80944    1844.6848   -28915.471   -29292.102    183.41835    -681.6866     223434.2   0.39930006    135.38176 
   33000       380000   -27070.786    281.80944    1844.6848   -28915.471   -29292.102    183.41835    -681.6866     223434.2   0.39930006    139.02894 
   34000       390000   -27070.786    281.80944    1844.6848   -28915.471   -29292.102    183.41835    -681.6866     223434.2   0.39930006    142.63091 
   35000       400000   -27070.786    281.80944    1844.6848   -28915.471   -29292.102    183.41835    -681.6866     223434.2   0.39930006    146.24473 
   36000       410000   -27070.786    281.80944    1844.6848   -28915.471   -29292.102    183.41835    -681.6866     223434.2   0.39930006    151.10737 
   37000       420000   -27070.786    281.80944    1844.6848   -28915.471   -29292.102    183.41835    -681.6866     223434.2   0.39930006    156.76463 
   38000       430000   -27070.786    281.80944    1844.6848   -28915.471   -29292.102    183.41835    -681.6866     223434.2   0.39930006    161.09715 
   39000       440000   -27070.786    281.80944    1844.6848   -28915.471   -29292.102    183.41835    -681.6866     223434.2   0.39930006    167.08415 
   40000       450000   -27070.786    281.80944    1844.6848   -28915.471   -29292.102    183.41835    -681.6866     223434.2   0.39930006    174.69752 
   41000       460000   -27070.786    281.80944    1844.6848   -28915.471   -29292.102    183.41835    -681.6866     223434.2   0.39930006    178.58567 
   42000       470000   -27070.786    281.80944    1844.6848   -28915.471   -29292.102    183.41835    -681.6866     223434.2   0.39930006    182.36761 
   43000       480000   -27070.786    281.80944    1844.6848   -28915.471   -29292.102    183.41835    -681.6866     223434.2   0.39930006    186.72783 
   44000       490000   -27070.786    281.80944    1844.6848   -28915.471   -29292.102    183.41835    -681.6866     223434.2   0.39930006    190.33697 
   45000       500000   -27070.786    281.80944    1844.6848   -28915.471   -29292.102    183.41835    -681.6866     223434.2   0.39930006    194.03497 
   46000       510000   -27070.786    281.80944    1844.6848   -28915.471   -29292.102    183.41835    -681.6866     223434.2   0.39930006    197.72159 
   47000       520000   -27070.786    281.80944    1844.6848   -28915.471   -29292.102    183.41835    -681.6866     223434.2   0.39930006    201.40943 
   48000       530000   -27070.786    281.80944    1844.6848   -28915.471   -29292.102    183.41835    -681.6866     223434.2   0.39930006    205.37981 
   49000       540000   -27070.786    281.80944    1844.6848   -28915.471   -29292.102    183.41835    -681.6866     223434.2   0.39930006    209.85427 
   50000       550000   -27070.786    281.80944    1844.6848   -28915.471   -29292.102    183.41835    -681.6866     223434.2   0.39930006    214.83752 
   51000       560000   -27070.786    281.80944    1844.6848   -28915.471   -29292.102    183.41835    -681.6866     223434.2   0.39930006    219.87537 
   52000       570000   -27070.786    281.80944    1844.6848   -28915.471   -29292.102    183.41835    -681.6866     223434.2   0.39930006    224.12773 
   53000       580000   -27070.786    281.80944    1844.6848   -28915.471   -29292.102    183.41835    -681.6866     223434.2   0.39930006     227.8716 
   54000       590000   -27070.786    281.80944    1844.6848   -28915.471   -29292.102    183.41835    -681.6866     223434.2   0.39930006    232.63702 
   55000       600000   -27070.786    281.80944    1844.6848   -28915.471   -29292.102    183.41835    -681.6866     223434.2   0.39930006    238.79292 
   56000       610000   -27070.786    281.80944    1844.6848   -28915.471   -29292.102    183.41835    -681.6866     223434.2   0.39930006    242.80811 
   57000       620000   -27070.786    281.80944    1844.6848   -28915.471   -29292.102    183.41835    -681.6866     223434.2   0.39930006    246.75051 
   58000       630000   -27070.786    281.80944    1844.6848   -28915.471   -29292.102    183.41835    -681.6866     223434.2   0.39930006     251.0437 
   59000       640000   -27070.786    281.80944    1844.6848   -28915.471   -29292.102    183.41835    -681.6866     223434.2   0.39930006    257.73609 
   60000       650000   -27070.786    281.80944    1844.6848   -28915.471   -29292.102    183.41835    -681.6866     223434.2   0.39930006    262.38587 
   61000       660000   -27070.786    281.80944    1844.6848   -28915.471   -29292.102    183.41835    -681.6866     223434.2   0.39930006    266.53719 
   62000       670000   -27070.786    281.80944    1844.6848   -28915.471   -29292.102    183.41835    -681.6866     223434.2   0.39930006    270.70182 
   63000       680000   -27070.786    281.80944    1844.6848   -28915.471   -29292.102    183.41835    -681.6866     223434.2   0.39930006    274.89334 
   64000       690000   -27070.786    281.80944    1844.6848   -28915.471   -29292.102    183.41835    -681.6866     223434.2   0.39930006    279.02758 
   65000       700000   -27070.786    281.80944    1844.6848   -28915.471   -29292.102    183.41835    -681.6866     223434.2   0.39930006    283.19369 
   66000       710000   -27070.786    281.80944    1844.6848   -28915.471   -29292.102    183.41835    -681.6866     223434.2   0.39930006     287.5602 
   67000       720000   -27070.786    281.80944    1844.6848   -28915.471   -29292.102    183.41835    -681.6866     223434.2   0.39930006    292.05011 
   68000       730000   -27070.786    281.80944    1844.6848   -28915.471   -29292.102    183.41835    -681.6866     223434.2   0.39930006    296.25723 
   69000       740000   -27070.786    281.80944    1844.6848   -28915.471   -29292.102    183.41835    -681.6866     223434.2   0.39930006    300.49808 
   70000       750000   -27070.786    281.80944    1844.6848   -28915.471   -29292.102    183.41835    -681.6866     223434.2   0.39930006    304.68348 
   71000       760000   -27070.786    281.80944    1844.6848   -28915.471   -29292.102    183.41835    -681.6866     223434.2   0.39930006    308.84763 
   72000       770000   -27070.786    281.80944    1844.6848   -28915.471   -29292.102    183.41835    -681.6866     223434.2   0.39930006    312.96158 
   73000       780000   -27070.786    281.80944    1844.6848   -28915.471   -29292.102    183.41835    -681.6866     223434.2   0.39930006    316.97634 
   74000       790000   -27070.786    281.80944    1844.6848   -28915.471   -29292.102    183.41835    -681.6866     223434.2   0.39930006     321.0166 
   75000       800000   -27070.786    281.80944    1844.6848   -28915.471   -29292.102    183.41835    -681.6866     223434.2   0.39930006    325.13813 
   76000       810000   -27070.786    281.80944    1844.6848   -28915.471   -29292.102    183.41835    -681.6866     223434.2   0.39930006    329.31198 
   77000       820000   -27070.786    281.80944    1844.6848   -28915.471   -29292.102    183.41835    -681.6866     223434.2   0.39930006    333.41811 
   78000       830000   -27070.786    281.80944    1844.6848   -28915.471   -29292.102    183.41835    -681.6866     223434.2   0.39930006    337.58098 
   79000       840000   -27070.786    281.80944    1844.6848   -28915.471   -29292.102    183.41835    -681.6866     223434.2   0.39930006    341.66018 
   80000       850000   -27070.786    281.80944    1844.6848   -28915.471   -29292.102    183.41835    -681.6866     223434.2   0.39930006    345.74726 
   81000       860000   -27070.786    281.80944    1844.6848   -28915.471   -29292.102    183.41835    -681.6866     223434.2   0.39930006    349.86434 
   82000       870000   -27070.786    281.80944    1844.6848   -28915.471   -29292.102    183.41835    -681.6866     223434.2   0.39930006    354.14905 
   83000       880000   -27070.786    281.80944    1844.6848   -28915.471   -29292.102    183.41835    -681.6866     223434.2   0.39930006    358.29179 
   84000       890000   -27070.786    281.80944    1844.6848   -28915.471   -29292.102    183.41835    -681.6866     223434.2   0.39930006    362.40811 
   85000       900000   -27070.786    281.80944    1844.6848   -28915.471   -29292.102    183.41835    -681.6866     223434.2   0.39930006    366.50882 
   86000       910000   -27070.786    281.80944    1844.6848   -28915.471   -29292.102    183.41835    -681.6866     223434.2   0.39930006    370.62739 
   87000       920000   -27070.786    281.80944    1844.6848   -28915.471   -29292.102    183.41835    -681.6866     223434.2   0.39930006    374.72909 
   88000       930000   -27070.786    281.80944    1844.6848   -28915.471   -29292.102    183.41835    -681.6866     223434.2   0.39930006    378.82879 
   89000       940000   -27070.786    281.80944    1844.6848   -28915.471   -29292.102    183.41835    -681.6866     223434.2   0.39930006    382.93349 
   90000       950000   -27070.786    281.80944    1844.6848   -28915.471   -29292.102    183.41835    -681.6866     223434.2   0.39930006    387.10028 
   91000       960000   -27070.786    281.80944    1844.6848   -28915.471   -29292.102    183.41835    -681.6866     223434.2   0.39930006    391.22966 
   92000       970000   -27070.786    281.80944    1844.6848   -28915.471   -29292.102    183.41835    -681.6866     223434.2   0.39930006    395.54066 
   93000       980000   -27070.786    281.80944    1844.6848   -28915.471   -29292.102    183.41835    -681.6866     223434.2   0.39930006     399.8009 
   94000       990000   -27070.786    281.80944    1844.6848   -28915.471   -29292.102    183.41835    -681.6866     223434.2   0.39930006    403.87845 
   95000      1000000   -27070.786    281.80944    1844.6848   -28915.471   -29292.102    183.41835    -681.6866     223434.2   0.39930006    407.96356 
   96000      1010000   -27070.786    281.80944    1844.6848   -28915.471   -29292.102    183.41835    -681.6866     223434.2   0.39930006      412.206 
   97000      1020000   -27070.786    281.80944    1844.6848   -28915.471   -29292.102    183.41835    -681.6866     223434.2   0.39930006    416.29913 
   98000      1030000   -27070.786    281.80944    1844.6848   -28915.471   -29292.102    183.41835    -681.6866     223434.2   0.39930006     420.4436 
   99000      1040000   -27070.786    281.80944    1844.6848   -28915.471   -29292.102    183.41835    -681.6866     223434.2   0.39930006    424.53056 
  100000      1050000   -27070.786    281.80944    1844.6848   -28915.471   -29292.102    183.41835    -681.6866     223434.2   0.39930006    428.62189 
  101000      1060000   -27070.786    281.80944    1844.6848   -28915.471   -29292.102    183.41835    -681.6866     223434.2   0.39930006    432.68225 
  102000      1070000   -27070.786    281.80944    1844.6848   -28915.471   -29292.102    183.41835    -681.6866     223434.2   0.39930006    436.74827 
  103000      1080000   -27070.786    281.80944    1844.6848   -28915.471   -29292.102    183.41835    -681.6866     223434.2   0.39930006    440.82418 
  104000      1090000   -27070.786    281.80944    1844.6848   -28915.471   -29292.102    183.41835    -681.6866     223434.2   0.39930006    444.97867 
  105000      1100000   -27070.786    281.80944    1844.6848   -28915.471   -29292.102    183.41835    -681.6866     223434.2   0.39930006    449.15717 
  106000      1110000   -27070.786    281.80944    1844.6848   -28915.471   -29292.102    183.41835    -681.6866     223434.2   0.39930006    453.23977 
  107000      1120000   -27070.786    281.80944    1844.6848   -28915.471   -29292.102    183.41835    -681.6866     223434.2   0.39930006    457.36818 
  108000      1130000   -27070.786    281.80944    1844.6848   -28915.471   -29292.102    183.41835    -681.6866     223434.2   0.39930006    461.45284 
  109000      1140000   -27070.786    281.80944    1844.6848   -28915.471   -29292.102    183.41835    -681.6866     223434.2   0.39930006    465.55232 
  110000      1150000   -27070.786    281.80944    1844.6848   -28915.471   -29292.102    183.41835    -681.6866     223434.2   0.39930006    469.62642 
  111000      1160000   -27070.786    281.80944    1844.6848   -28915.471   -29292.102    183.41835    -681.6866     223434.2   0.39930006    473.88597 
  112000      1170000   -27070.786    281.80944    1844.6848   -28915.471   -29292.102    183.41835    -681.6866     223434.2   0.39930006    478.00352 
  113000      1180000   -27070.786    281.80944    1844.6848   -28915.471   -29292.102    183.41835    -681.6866     223434.2   0.39930006    482.16585 
  114000      1190000   -27070.786    281.80944    1844.6848   -28915.471   -29292.102    183.41835    -681.6866     223434.2   0.39930006      486.214 
  115000      1200000   -27070.786    281.80944    1844.6848   -28915.471   -29292.102    183.41835    -681.6866     223434.2   0.39930006    490.29921 
  116000      1210000   -27070.786    281.80944    1844.6848   -28915.471   -29292.102    183.41835    -681.6866     223434.2   0.39930006    494.40694 
  117000      1220000   -27070.786    281.80944    1844.6848   -28915.471   -29292.102    183.41835    -681.6866     223434.2   0.39930006    498.49995 
  118000      1230000   -27070.786    281.80944    1844.6848   -28915.471   -29292.102    183.41835    -681.6866     223434.2   0.39930006    502.56593 
  119000      1240000   -27070.786    281.80944    1844.6848   -28915.471   -29292.102    183.41835    -681.6866     223434.2   0.39930006    506.66791 
  120000      1250000   -27070.786    281.80944    1844.6848   -28915.471   -29292.102    183.41835    -681.6866     223434.2   0.39930006    510.79792 
  121000      1260000   -27070.786    281.80944    1844.6848   -28915.471   -29292.102    183.41835    -681.6866     223434.2   0.39930006    514.87321 
  122000      1270000   -27070.786    281.80944    1844.6848   -28915.471   -29292.102    183.41835    -681.6866     223434.2   0.39930006    519.04917 
  123000      1280000   -27070.786    281.80944    1844.6848   -28915.471   -29292.102    183.41835    -681.6866     223434.2   0.39930006    523.11153 
  124000      1290000   -27070.786    281.80944    1844.6848   -28915.471   -29292.102    183.41835    -681.6866     223434.2   0.39930006    527.18228 
  125000      1300000   -27070.786    281.80944    1844.6848   -28915.471   -29292.102    183.41835    -681.6866     223434.2   0.39930006    531.42569 
  126000      1310000   -27070.786    281.80944    1844.6848   -28915.471   -29292.102    183.41835    -681.6866     223434.2   0.39930006    535.61196 
  127000      1320000   -27070.786    281.80944    1844.6848   -28915.471   -29292.102    183.41835    -681.6866     223434.2   0.39930006    539.78048 
  128000      1330000   -27070.786    281.80944    1844.6848   -28915.471   -29292.102    183.41835    -681.6866     223434.2   0.39930006    543.88217 
  129000      1340000   -27070.786    281.80944    1844.6848   -28915.471   -29292.102    183.41835    -681.6866     223434.2   0.39930006    547.99569 
  130000      1350000   -27070.786    281.80944    1844.6848   -28915.471   -29292.102    183.41835    -681.6866     223434.2   0.39930006    552.07892 
  131000      1360000   -27070.786    281.80944    1844.6848   -28915.471   -29292.102    183.41835    -681.6866     223434.2   0.39930006     556.1811 
  132000      1370000   -27070.786    281.80944    1844.6848   -28915.471   -29292.102    183.41835    -681.6866     223434.2   0.39930006    560.31054 
  133000      1380000   -27070.786    281.80944    1844.6848   -28915.471   -29292.102    183.41835    -681.6866     223434.2   0.39930006     564.4256 
  134000      1390000   -27070.786    281.80944    1844.6848   -28915.471   -29292.102    183.41835    -681.6866     223434.2   0.39930006    568.62899 
  135000      1400000   -27070.786    281.80944    1844.6848   -28915.471   -29292.102    183.41835    -681.6866     223434.2   0.39930006    572.74681 
  136000      1410000   -27070.786    281.80944    1844.6848   -28915.471   -29292.102    183.41835    -681.6866     223434.2   0.39930006    576.90232 
  137000      1420000   -27070.786    281.80944    1844.6848   -28915.471   -29292.102    183.41835    -681.6866     223434.2   0.39930006    581.01563 
  138000      1430000   -27070.786    281.80944    1844.6848   -28915.471   -29292.102    183.41835    -681.6866     223434.2   0.39930006    585.14903 
  139000      1440000   -27070.786    281.80944    1844.6848   -28915.471   -29292.102    183.41835    -681.6866     223434.2   0.39930006    589.25396 
  140000      1450000   -27070.786    281.80944    1844.6848   -28915.471   -29292.102    183.41835    -681.6866     223434.2   0.39930006    593.61774 
  141000      1460000   -27070.786    281.80944    1844.6848   -28915.471   -29292.102    183.41835    -681.6866     223434.2   0.39930006    597.72325 
  142000      1470000   -27070.786    281.80944    1844.6848   -28915.471   -29292.102    183.41835    -681.6866     223434.2   0.39930006    601.87767 
  143000      1480000   -27070.786    281.80944    1844.6848   -28915.471   -29292.102    183.41835    -681.6866     223434.2   0.39930006    605.99095 
  144000      1490000   -27070.786    281.80944    1844.6848   -28915.471   -29292.102    183.41835    -681.6866     223434.2   0.39930006    610.09642 
  145000      1500000   -27070.786    281.80944    1844.6848   -28915.471   -29292.102    183.41835    -681.6866     223434.2   0.39930006    614.17427 
  146000      1510000   -27070.786    281.80944    1844.6848   -28915.471   -29292.102    183.41835    -681.6866     223434.2   0.39930006    618.32322 
  147000      1520000   -27070.786    281.80944    1844.6848   -28915.471   -29292.102    183.41835    -681.6866     223434.2   0.39930006    622.42858 
  148000      1530000   -27070.786    281.80944    1844.6848   -28915.471   -29292.102    183.41835    -681.6866     223434.2   0.39930006    626.58305 
  149000      1540000   -27070.786    281.80944    1844.6848   -28915.471   -29292.102    183.41835    -681.6866     223434.2   0.39930006    630.72817 
  150000      1550000   -27070.786    281.80944    1844.6848   -28915.471   -29292.102    183.41835    -681.6866     223434.2   0.39930006    634.84008 
  151000      1560000   -27070.786    281.80944    1844.6848   -28915.471   -29292.102    183.41835    -681.6866     223434.2   0.39930006    638.99293 
  152000      1570000   -27070.786    281.80944    1844.6848   -28915.471   -29292.102    183.41835    -681.6866     223434.2   0.39930006     643.0767 
  153000      1580000   -27070.786    281.80944    1844.6848   -28915.471   -29292.102    183.41835    -681.6866     223434.2   0.39930006    647.14824 
  154000      1590000   -27070.786    281.80944    1844.6848   -28915.471   -29292.102    183.41835    -681.6866     223434.2   0.39930006    651.38625 
  155000      1600000   -27070.786    281.80944    1844.6848   -28915.471   -29292.102    183.41835    -681.6866     223434.2   0.39930006    655.51064 
  156000      1610000   -27070.786    281.80944    1844.6848   -28915.471   -29292.102    183.41835    -681.6866     223434.2   0.39930006     659.6593 
  157000      1620000   -27070.786    281.80944    1844.6848   -28915.471   -29292.102    183.41835    -681.6866     223434.2   0.39930006    663.76507 
  158000      1630000   -27070.786    281.80944    1844.6848   -28915.471   -29292.102    183.41835    -681.6866     223434.2   0.39930006     667.9606 
  159000      1640000   -27070.786    281.80944    1844.6848   -28915.471   -29292.102    183.41835    -681.6866     223434.2   0.39930006    672.06045 
  160000      1650000   -27070.786    281.80944    1844.6848   -28915.471   -29292.102    183.41835    -681.6866     223434.2   0.39930006     676.1515 
  161000      1660000   -27070.786    281.80944    1844.6848   -28915.471   -29292.102    183.41835    -681.6866     223434.2   0.39930006    680.29427 
  162000      1670000   -27070.786    281.80944    1844.6848   -28915.471   -29292.102    183.41835    -681.6866     223434.2   0.39930006    684.47281 
  163000      1680000   -27070.786    281.80944    1844.6848   -28915.471   -29292.102    183.41835    -681.6866     223434.2   0.39930006    688.69982 
  164000      1690000   -27070.786    281.80944    1844.6848   -28915.471   -29292.102    183.41835    -681.6866     223434.2   0.39930006    692.81562 
  165000      1700000   -27070.786    281.80944    1844.6848   -28915.471   -29292.102    183.41835    -681.6866     223434.2   0.39930006    697.02596 
  166000      1710000   -27070.786    281.80944    1844.6848   -28915.471   -29292.102    183.41835    -681.6866     223434.2   0.39930006    701.18051 
  167000      1720000   -27070.786    281.80944    1844.6848   -28915.471   -29292.102    183.41835    -681.6866     223434.2   0.39930006    705.30122 
  168000      1730000   -27070.786    281.80944    1844.6848   -28915.471   -29292.102    183.41835    -681.6866     223434.2   0.39930006    709.40566 
  169000      1740000   -27070.786    281.80944    1844.6848   -28915.471   -29292.102    183.41835    -681.6866     223434.2   0.39930006    713.68773 
  170000      1750000   -27070.786    281.80944    1844.6848   -28915.471   -29292.102    183.41835    -681.6866     223434.2   0.39930006    717.80132 
  171000      1760000   -27070.786    281.80944    1844.6848   -28915.471   -29292.102    183.41835    -681.6866     223434.2   0.39930006    721.98266 
  172000      1770000   -27070.786    281.80944    1844.6848   -28915.471   -29292.102    183.41835    -681.6866     223434.2   0.39930006    726.07025 
  173000      1780000   -27070.786    281.80944    1844.6848   -28915.471   -29292.102    183.41835    -681.6866     223434.2   0.39930006    730.16913 
  174000      1790000   -27070.786    281.80944    1844.6848   -28915.471   -29292.102    183.41835    -681.6866     223434.2   0.39930006    734.27157 
  175000      1800000   -27070.786    281.80944    1844.6848   -28915.471   -29292.102    183.41835    -681.6866     223434.2   0.39930006    738.39616 
  176000      1810000   -27070.786    281.80944    1844.6848   -28915.471   -29292.102    183.41835    -681.6866     223434.2   0.39930006    742.51344 
  177000      1820000   -27070.786    281.80944    1844.6848   -28915.471   -29292.102    183.41835    -681.6866     223434.2   0.39930006     746.6623 
  178000      1830000   -27070.786    281.80944    1844.6848   -28915.471   -29292.102    183.41835    -681.6866     223434.2   0.39930006    750.79256 
  179000      1840000   -27070.786    281.80944    1844.6848   -28915.471   -29292.102    183.41835    -681.6866     223434.2   0.39930006    755.10305 
  180000      1850000   -27070.786    281.80944    1844.6848   -28915.471   -29292.102    183.41835    -681.6866     223434.2   0.39930006    759.30733 
  181000      1860000   -27070.786    281.80944    1844.6848   -28915.471   -29292.102    183.41835    -681.6866     223434.2   0.39930006    763.42824 
  182000      1870000   -27070.786    281.80944    1844.6848   -28915.471   -29292.102    183.41835    -681.6866     223434.2   0.39930006    767.53661 
  183000      1880000   -27070.786    281.80944    1844.6848   -28915.471   -29292.102    183.41835    -681.6866     223434.2   0.39930006     771.8048 
  184000      1890000   -27070.786    281.80944    1844.6848   -28915.471   -29292.102    183.41835    -681.6866     223434.2   0.39930006     775.9089 
  185000      1900000   -27070.786    281.80944    1844.6848   -28915.471   -29292.102    183.41835    -681.6866     223434.2   0.39930006    780.07517 
  186000      1910000   -27070.786    281.80944    1844.6848   -28915.471   -29292.102    183.41835    -681.6866     223434.2   0.39930006    784.19551 
  187000      1920000   -27070.786    281.80944    1844.6848   -28915.471   -29292.102    183.41835    -681.6866     223434.2   0.39930006    788.30799 
  188000      1930000   -27070.786    281.80944    1844.6848   -28915.471   -29292.102    183.41835    -681.6866     223434.2   0.39930006    792.39638 
  189000      1940000   -27070.786    281.80944    1844.6848   -28915.471   -29292.102    183.41835    -681.6866     223434.2   0.39930006    796.51854 
  190000      1950000   -27070.786    281.80944    1844.6848   -28915.471   -29292.102    183.41835    -681.6866     223434.2   0.39930006    800.60534 
  191000      1960000   -27070.786    281.80944    1844.6848   -28915.471   -29292.102    183.41835    -681.6866     223434.2   0.39930006    804.73553 
  192000      1970000   -27070.786    281.80944    1844.6848   -28915.471   -29292.102    183.41835    -681.6866     223434.2   0.39930006     808.9077 
  193000      1980000   -27070.786    281.80944    1844.6848   -28915.471   -29292.102    183.41835    -681.6866     223434.2   0.39930006    813.01889 
  194000      1990000   -27070.786    281.80944    1844.6848   -28915.471   -29292.102    183.41835    -681.6866     223434.2   0.39930006    817.17412 
  195000      2000000   -27070.786    281.80944    1844.6848   -28915.471   -29292.102    183.41835    -681.6866     223434.2   0.39930006    821.27571 
  196000      2010000   -27070.786    281.80944    1844.6848   -28915.471   -29292.102    183.41835    -681.6866     223434.2   0.39930006     825.3822 
  197000      2020000   -27070.786    281.80944    1844.6848   -28915.471   -29292.102    183.41835    -681.6866     223434.2   0.39930006    829.51363 
  198000      2030000   -27070.786    281.80944    1844.6848   -28915.471   -29292.102    183.41835    -681.6866     223434.2   0.39930006    833.78577 
  199000      2040000   -27070.786    281.80944    1844.6848   -28915.471   -29292.102    183.41835    -681.6866     223434.2   0.39930006    837.89111 
  200000      2050000   -27070.786    281.80944    1844.6848   -28915.471   -29292.102    183.41835    -681.6866     223434.2   0.39930006    842.13566 
  201000      2060000   -27070.786    281.80944    1844.6848   -28915.471   -29292.102    183.41835    -681.6866     223434.2   0.39930006     846.2379 
  202000      2070000   -27070.786    281.80944    1844.6848   -28915.471   -29292.102    183.41835    -681.6866     223434.2   0.39930006    850.36549 
  203000      2080000   -27070.786    281.80944    1844.6848   -28915.471   -29292.102    183.41835    -681.6866     223434.2   0.39930006    854.45698 
  204000      2090000   -27070.786    281.80944    1844.6848   -28915.471   -29292.102    183.41835    -681.6866     223434.2   0.39930006    858.61813 
  205000      2100000   -27070.786    281.80944    1844.6848   -28915.471   -29292.102    183.41835    -681.6866     223434.2   0.39930006    862.77802 
  206000      2110000   -27070.786    281.80944    1844.6848   -28915.471   -29292.102    183.41835    -681.6866     223434.2   0.39930006     866.9686 
  207000      2120000   -27070.786    281.80944    1844.6848   -28915.471   -29292.102    183.41835    -681.6866     223434.2   0.39930006    871.12127 
  208000      2130000   -27070.786    281.80944    1844.6848   -28915.471   -29292.102    183.41835    -681.6866     223434.2   0.39930006    875.23619 
  209000      2140000   -27070.786    281.80944    1844.6848   -28915.471   -29292.102    183.41835    -681.6866     223434.2   0.39930006    879.41421 
  210000      2150000   -27070.786    281.80944    1844.6848   -28915.471   -29292.102    183.41835    -681.6866     223434.2   0.39930006    883.54562 
  211000      2160000   -27070.786    281.80944    1844.6848   -28915.471   -29292.102    183.41835    -681.6866     223434.2   0.39930006    888.68218 
  212000      2170000   -27070.786    281.80944    1844.6848   -28915.471   -29292.102    183.41835    -681.6866     223434.2   0.39930006    893.06836 
  213000      2180000   -27070.786    281.80944    1844.6848   -28915.471   -29292.102    183.41835    -681.6866     223434.2   0.39930006     897.3008 
  214000      2190000   -27070.786    281.80944    1844.6848   -28915.471   -29292.102    183.41835    -681.6866     223434.2   0.39930006    901.46505 
  215000      2200000   -27070.786    281.80944    1844.6848   -28915.471   -29292.102    183.41835    -681.6866     223434.2   0.39930006    905.58454 
  216000      2210000   -27070.786    281.80944    1844.6848   -28915.471   -29292.102    183.41835    -681.6866     223434.2   0.39930006     909.7238 
  217000      2220000   -27070.786    281.80944    1844.6848   -28915.471   -29292.102    183.41835    -681.6866     223434.2   0.39930006    913.83087 
  218000      2230000   -27070.786    281.80944    1844.6848   -28915.471   -29292.102    183.41835    -681.6866     223434.2   0.39930006    917.93516 
  219000      2240000   -27070.786    281.80944    1844.6848   -28915.471   -29292.102    183.41835    -681.6866     223434.2   0.39930006    922.04592 
  220000      2250000   -27070.786    281.80944    1844.6848   -28915.471   -29292.102    183.41835    -681.6866     223434.2   0.39930006    926.20193 
  221000      2260000   -27070.786    281.80944    1844.6848   -28915.471   -29292.102    183.41835    -681.6866     223434.2   0.39930006    930.37086 
  222000      2270000   -27070.786    281.80944    1844.6848   -28915.471   -29292.102    183.41835    -681.6866     223434.2   0.39930006    934.47088 
  223000      2280000   -27070.786    281.80944    1844.6848   -28915.471   -29292.102    183.41835    -681.6866     223434.2   0.39930006    938.61551 
  224000      2290000   -27070.786    281.80944    1844.6848   -28915.471   -29292.102    183.41835    -681.6866     223434.2   0.39930006    942.69962 
  225000      2300000   -27070.786    281.80944    1844.6848   -28915.471   -29292.102    183.41835    -681.6866     223434.2   0.39930006    946.79049 
  226000      2310000   -27070.786    281.80944    1844.6848   -28915.471   -29292.102    183.41835    -681.6866     223434.2   0.39930006    951.07742 
  227000      2320000   -27070.786    281.80944    1844.6848   -28915.471   -29292.102    183.41835    -681.6866     223434.2   0.39930006    955.18579 
  228000      2330000   -27070.786    281.80944    1844.6848   -28915.471   -29292.102    183.41835    -681.6866     223434.2   0.39930006    959.35268 
  229000      2340000   -27070.786    281.80944    1844.6848   -28915.471   -29292.102    183.41835    -681.6866     223434.2   0.39930006    963.44026 
  230000      2350000   -27070.786    281.80944    1844.6848   -28915.471   -29292.102    183.41835    -681.6866     223434.2   0.39930006    967.55259 
  231000      2360000   -27070.786    281.80944    1844.6848   -28915.471   -29292.102    183.41835    -681.6866     223434.2   0.39930006    971.70782 
  232000      2370000   -27070.786    281.80944    1844.6848   -28915.471   -29292.102    183.41835    -681.6866     223434.2   0.39930006    975.84393 
  233000      2380000   -27070.786    281.80944    1844.6848   -28915.471   -29292.102    183.41835    -681.6866     223434.2   0.39930006    979.97324 
  234000      2390000   -27070.786    281.80944    1844.6848   -28915.471   -29292.102    183.41835    -681.6866     223434.2   0.39930006    984.34606 
  235000      2400000   -27070.786    281.80944    1844.6848   -28915.471   -29292.102    183.41835    -681.6866     223434.2   0.39930006    988.95241 
  236000      2410000   -27070.786    281.80944    1844.6848   -28915.471   -29292.102    183.41835    -681.6866     223434.2   0.39930006     993.4705 
  237000      2420000   -27070.786    281.80944    1844.6848   -28915.471   -29292.102    183.41835    -681.6866     223434.2   0.39930006    997.96815 
  238000      2430000   -27070.786    281.80944    1844.6848   -28915.471   -29292.102    183.41835    -681.6866     223434.2   0.39930006    1002.4078 
  239000      2440000   -27070.786    281.80944    1844.6848   -28915.471   -29292.102    183.41835    -681.6866     223434.2   0.39930006    1006.5716 
  240000      2450000   -27070.786    281.80944    1844.6848   -28915.471   -29292.102    183.41835    -681.6866     223434.2   0.39930006    1010.8142 
  241000      2460000   -27070.786    281.80944    1844.6848   -28915.471   -29292.102    183.41835    -681.6866     223434.2   0.39930006    1014.9182 
  242000      2470000   -27070.786    281.80944    1844.6848   -28915.471   -29292.102    183.41835    -681.6866     223434.2   0.39930006    1019.1806 
  243000      2480000   -27070.786    281.80944    1844.6848   -28915.471   -29292.102    183.41835    -681.6866     223434.2   0.39930006    1023.2841 
  244000      2490000   -27070.786    281.80944    1844.6848   -28915.471   -29292.102    183.41835    -681.6866     223434.2   0.39930006    1027.3622 
  245000      2500000   -27070.786    281.80944    1844.6848   -28915.471   -29292.102    183.41835    -681.6866     223434.2   0.39930006    1031.4419 
  246000      2510000   -27070.786    281.80944    1844.6848   -28915.471   -29292.102    183.41835    -681.6866     223434.2   0.39930006    1035.5195 
  247000      2520000   -27070.786    281.80944    1844.6848   -28915.471   -29292.102    183.41835    -681.6866     223434.2   0.39930006    1039.5945 
  248000      2530000   -27070.786    281.80944    1844.6848   -28915.471   -29292.102    183.41835    -681.6866     223434.2   0.39930006    1043.7036 
  249000      2540000   -27070.786    281.80944    1844.6848   -28915.471   -29292.102    183.41835    -681.6866     223434.2   0.39930006    1047.9142 
  250000      2550000   -27070.786    281.80944    1844.6848   -28915.471   -29292.102    183.41835    -681.6866     223434.2   0.39930006    1052.0692 
  251000      2560000   -27070.786    281.80944    1844.6848   -28915.471   -29292.102    183.41835    -681.6866     223434.2   0.39930006    1056.2778 
  252000      2570000   -27070.786    281.80944    1844.6848   -28915.471   -29292.102    183.41835    -681.6866     223434.2   0.39930006     1060.397 
  253000      2580000   -27070.786    281.80944    1844.6848   -28915.471   -29292.102    183.41835    -681.6866     223434.2   0.39930006    1064.4913 
  254000      2590000   -27070.786    281.80944    1844.6848   -28915.471   -29292.102    183.41835    -681.6866     223434.2   0.39930006    1068.5662 
  255000      2600000   -27070.786    281.80944    1844.6848   -28915.471   -29292.102    183.41835    -681.6866     223434.2   0.39930006    1072.8355 
  256000      2610000   -27070.786    281.80944    1844.6848   -28915.471   -29292.102    183.41835    -681.6866     223434.2   0.39930006    1076.9197 
  257000      2620000   -27070.786    281.80944    1844.6848   -28915.471   -29292.102    183.41835    -681.6866     223434.2   0.39930006    1081.0413 
  258000      2630000   -27070.786    281.80944    1844.6848   -28915.471   -29292.102    183.41835    -681.6866     223434.2   0.39930006    1085.1351 
  259000      2640000   -27070.786    281.80944    1844.6848   -28915.471   -29292.102    183.41835    -681.6866     223434.2   0.39930006    1089.2264 
  260000      2650000   -27070.786    281.80944    1844.6848   -28915.471   -29292.102    183.41835    -681.6866     223434.2   0.39930006    1093.2774 
  261000      2660000   -27070.786    281.80944    1844.6848   -28915.471   -29292.102    183.41835    -681.6866     223434.2   0.39930006    1097.3785 
  262000      2670000   -27070.786    281.80944    1844.6848   -28915.471   -29292.102    183.41835    -681.6866     223434.2   0.39930006    1101.6618 
  263000      2680000   -27070.786    281.80944    1844.6848   -28915.471   -29292.102    183.41835    -681.6866     223434.2   0.39930006     1105.815 
  264000      2690000   -27070.786    281.80944    1844.6848   -28915.471   -29292.102    183.41835    -681.6866     223434.2   0.39930006    1109.9813 
  265000      2700000   -27070.786    281.80944    1844.6848   -28915.471   -29292.102    183.41835    -681.6866     223434.2   0.39930006    1114.1058 
  266000      2710000   -27070.786    281.80944    1844.6848   -28915.471   -29292.102    183.41835    -681.6866     223434.2   0.39930006    1118.3408 
  267000      2720000   -27070.786    281.80944    1844.6848   -28915.471   -29292.102    183.41835    -681.6866     223434.2   0.39930006    1122.4328 
  268000      2730000   -27070.786    281.80944    1844.6848   -28915.471   -29292.102    183.41835    -681.6866     223434.2   0.39930006    1126.5345 
  269000      2740000   -27070.786    281.80944    1844.6848   -28915.471   -29292.102    183.41835    -681.6866     223434.2   0.39930006    1130.6887 
  270000      2750000   -27070.786    281.80944    1844.6848   -28915.471   -29292.102    183.41835    -681.6866     223434.2   0.39930006    1134.9172 
  271000      2760000   -27070.786    281.80944    1844.6848   -28915.471   -29292.102    183.41835    -681.6866     223434.2   0.39930006    1139.0749 
  272000      2770000   -27070.786    281.80944    1844.6848   -28915.471   -29292.102    183.41835    -681.6866     223434.2   0.39930006    1143.1966 
  273000      2780000   -27070.786    281.80944    1844.6848   -28915.471   -29292.102    183.41835    -681.6866     223434.2   0.39930006    1147.2916 
  274000      2790000   -27070.786    281.80944    1844.6848   -28915.471   -29292.102    183.41835    -681.6866     223434.2   0.39930006    1151.4266 
  275000      2800000   -27070.786    281.80944    1844.6848   -28915.471   -29292.102    183.41835    -681.6866     223434.2   0.39930006    1155.5983 
  276000      2810000   -27070.786    281.80944    1844.6848   -28915.471   -29292.102    183.41835    -681.6866     223434.2   0.39930006    1159.7873 
  277000      2820000   -27070.786    281.80944    1844.6848   -28915.471   -29292.102    183.41835    -681.6866     223434.2   0.39930006    1164.0101 
  278000      2830000   -27070.786    281.80944    1844.6848   -28915.471   -29292.102    183.41835    -681.6866     223434.2   0.39930006      1168.24 
  279000      2840000   -27070.786    281.80944    1844.6848   -28915.471   -29292.102    183.41835    -681.6866     223434.2   0.39930006    1172.3401 
  280000      2850000   -27070.786    281.80944    1844.6848   -28915.471   -29292.102    183.41835    -681.6866     223434.2   0.39930006    1176.4714 
  281000      2860000   -27070.786    281.80944    1844.6848   -28915.471   -29292.102    183.41835    -681.6866     223434.2   0.39930006    1180.5819 
  282000      2870000   -27070.786    281.80944    1844.6848   -28915.471   -29292.102    183.41835    -681.6866     223434.2   0.39930006    1184.7134 
  283000      2880000   -27070.786    281.80944    1844.6848   -28915.471   -29292.102    183.41835    -681.6866     223434.2   0.39930006    1188.8208 
  284000      2890000   -27070.786    281.80944    1844.6848   -28915.471   -29292.102    183.41835    -681.6866     223434.2   0.39930006    1193.1168 
  285000      2900000   -27070.786    281.80944    1844.6848   -28915.471   -29292.102    183.41835    -681.6866     223434.2   0.39930006    1197.2367 
  286000      2910000   -27070.786    281.80944    1844.6848   -28915.471   -29292.102    183.41835    -681.6866     223434.2   0.39930006    1201.4232 
  287000      2920000   -27070.786    281.80944    1844.6848   -28915.471   -29292.102    183.41835    -681.6866     223434.2   0.39930006    1205.5124 
  288000      2930000   -27070.786    281.80944    1844.6848   -28915.471   -29292.102    183.41835    -681.6866     223434.2   0.39930006     1209.616 
  289000      2940000   -27070.786    281.80944    1844.6848   -28915.471   -29292.102    183.41835    -681.6866     223434.2   0.39930006     1213.711 
  290000      2950000   -27070.786    281.80944    1844.6848   -28915.471   -29292.102    183.41835    -681.6866     223434.2   0.39930006    1217.8174 
  291000      2960000   -27070.786    281.80944    1844.6848   -28915.471   -29292.102    183.41835    -681.6866     223434.2   0.39930006    1221.9194 
  292000      2970000   -27070.786    281.80944    1844.6848   -28915.471   -29292.102    183.41835    -681.6866     223434.2   0.39930006    1226.1273 
  293000      2980000   -27070.786    281.80944    1844.6848   -28915.471   -29292.102    183.41835    -681.6866     223434.2   0.39930006     1230.427 
  294000      2990000   -27070.786    281.80944    1844.6848   -28915.471   -29292.102    183.41835    -681.6866     223434.2   0.39930006    1234.5251 
  295000      3000000   -27070.786    281.80944    1844.6848   -28915.471   -29292.102    183.41835    -681.6866     223434.2   0.39930006    1238.6778 
  296000      3010000   -27070.786    281.80944    1844.6848   -28915.471   -29292.102    183.41835    -681.6866     223434.2   0.39930006    1242.7413 
  297000      3020000   -27070.786    281.80944    1844.6848   -28915.471   -29292.102    183.41835    -681.6866     223434.2   0.39930006    1246.8227 
  298000      3030000   -27070.786    281.80944    1844.6848   -28915.471   -29292.102    183.41835    -681.6866     223434.2   0.39930006    1251.0467 
  299000      3040000   -27070.786    281.80944    1844.6848   -28915.471   -29292.102    183.41835    -681.6866     223434.2   0.39930006    1255.1632 
  300000      3050000   -27070.786    281.80944    1844.6848   -28915.471   -29292.102    183.41835    -681.6866     223434.2   0.39930006     1259.333 
  301000      3060000   -27070.786    281.80944    1844.6848   -28915.471   -29292.102    183.41835    -681.6866     223434.2   0.39930006    1263.4355 
  302000      3070000   -27070.786    281.80944    1844.6848   -28915.471   -29292.102    183.41835    -681.6866     223434.2   0.39930006    1267.6049 
  303000      3080000   -27070.786    281.80944    1844.6848   -28915.471   -29292.102    183.41835    -681.6866     223434.2   0.39930006      1271.72 
  304000      3090000   -27070.786    281.80944    1844.6848   -28915.471   -29292.102    183.41835    -681.6866     223434.2   0.39930006    1275.8337 
  305000      3100000   -27070.786    281.80944    1844.6848   -28915.471   -29292.102    183.41835    -681.6866     223434.2   0.39930006    1279.9888 
  306000      3110000   -27070.786    281.80944    1844.6848   -28915.471   -29292.102    183.41835    -681.6866     223434.2   0.39930006    1284.1272 
  307000      3120000   -27070.786    281.80944    1844.6848   -28915.471   -29292.102    183.41835    -681.6866     223434.2   0.39930006    1288.3464 
  308000      3130000   -27070.786    281.80944    1844.6848   -28915.471   -29292.102    183.41835    -681.6866     223434.2   0.39930006    1292.4629 
  309000      3140000   -27070.786    281.80944    1844.6848   -28915.471   -29292.102    183.41835    -681.6866     223434.2   0.39930006    1296.6347 
  310000      3150000   -27070.786    281.80944    1844.6848   -28915.471   -29292.102    183.41835    -681.6866     223434.2   0.39930006    1300.7878 
  311000      3160000   -27070.786    281.80944    1844.6848   -28915.471   -29292.102    183.41835    -681.6866     223434.2   0.39930006    1304.9051 
  312000      3170000   -27070.786    281.80944    1844.6848   -28915.471   -29292.102    183.41835    -681.6866     223434.2   0.39930006    1308.9947 
  313000      3180000   -27070.786    281.80944    1844.6848   -28915.471   -29292.102    183.41835    -681.6866     223434.2   0.39930006     1313.244 
  314000      3190000   -27070.786    281.80944    1844.6848   -28915.471   -29292.102    183.41835    -681.6866     223434.2   0.39930006    1317.3504 
  315000      3200000   -27070.786    281.80944    1844.6848   -28915.471   -29292.102    183.41835    -681.6866     223434.2   0.39930006    1321.5152 
  316000      3210000   -27070.786    281.80944    1844.6848   -28915.471   -29292.102    183.41835    -681.6866     223434.2   0.39930006    1325.6292 
  317000      3220000   -27070.786    281.80944    1844.6848   -28915.471   -29292.102    183.41835    -681.6866     223434.2   0.39930006    1329.7388 
  318000      3230000   -27070.786    281.80944    1844.6848   -28915.471   -29292.102    183.41835    -681.6866     223434.2   0.39930006    1333.8354 
  319000      3240000   -27070.786    281.80944    1844.6848   -28915.471   -29292.102    183.41835    -681.6866     223434.2   0.39930006    1337.9431 
  320000      3250000   -27070.786    281.80944    1844.6848   -28915.471   -29292.102    183.41835    -681.6866     223434.2   0.39930006    1342.0359 
  321000      3260000   -27070.786    281.80944    1844.6848   -28915.471   -29292.102    183.41835    -681.6866     223434.2   0.39930006    1346.1658 
  322000      3270000   -27070.786    281.80944    1844.6848   -28915.471   -29292.102    183.41835    -681.6866     223434.2   0.39930006    1350.3196 
  323000      3280000   -27070.786    281.80944    1844.6848   -28915.471   -29292.102    183.41835    -681.6866     223434.2   0.39930006    1354.4004 
  324000      3290000   -27070.786    281.80944    1844.6848   -28915.471   -29292.102    183.41835    -681.6866     223434.2   0.39930006    1358.5949 
  325000      3300000   -27070.786    281.80944    1844.6848   -28915.471   -29292.102    183.41835    -681.6866     223434.2   0.39930006    1362.6776 
  326000      3310000   -27070.786    281.80944    1844.6848   -28915.471   -29292.102    183.41835    -681.6866     223434.2   0.39930006    1366.7613 
  327000      3320000   -27070.786    281.80944    1844.6848   -28915.471   -29292.102    183.41835    -681.6866     223434.2   0.39930006    1371.0273 
  328000      3330000   -27070.786    281.80944    1844.6848   -28915.471   -29292.102    183.41835    -681.6866     223434.2   0.39930006     1375.127 
  329000      3340000   -27070.786    281.80944    1844.6848   -28915.471   -29292.102    183.41835    -681.6866     223434.2   0.39930006    1379.2743 
  330000      3350000   -27070.786    281.80944    1844.6848   -28915.471   -29292.102    183.41835    -681.6866     223434.2   0.39930006    1383.3723 
  331000      3360000   -27070.786    281.80944    1844.6848   -28915.471   -29292.102    183.41835    -681.6866     223434.2   0.39930006    1387.4472 
  332000      3370000   -27070.786    281.80944    1844.6848   -28915.471   -29292.102    183.41835    -681.6866     223434.2   0.39930006    1391.5242 
  333000      3380000   -27070.786    281.80944    1844.6848   -28915.471   -29292.102    183.41835    -681.6866     223434.2   0.39930006    1395.5873 
  334000      3390000   -27070.786    281.80944    1844.6848   -28915.471   -29292.102    183.41835    -681.6866     223434.2   0.39930006    1399.6818 
  335000      3400000   -27070.786    281.80944    1844.6848   -28915.471   -29292.102    183.41835    -681.6866     223434.2   0.39930006    1403.7829 
  336000      3410000   -27070.786    281.80944    1844.6848   -28915.471   -29292.102    183.41835    -681.6866     223434.2   0.39930006    1407.9203 
  337000      3420000   -27070.786    281.80944    1844.6848   -28915.471   -29292.102    183.41835    -681.6866     223434.2   0.39930006    1412.0477 
  338000      3430000   -27070.786    281.80944    1844.6848   -28915.471   -29292.102    183.41835    -681.6866     223434.2   0.39930006    1416.1619 
  339000      3440000   -27070.786    281.80944    1844.6848   -28915.471   -29292.102    183.41835    -681.6866     223434.2   0.39930006     1420.283 
  340000      3450000   -27070.786    281.80944    1844.6848   -28915.471   -29292.102    183.41835    -681.6866     223434.2   0.39930006    1424.4045 
  341000      3460000   -27070.786    281.80944    1844.6848   -28915.471   -29292.102    183.41835    -681.6866     223434.2   0.39930006    1428.4906 
  342000      3470000   -27070.786    281.80944    1844.6848   -28915.471   -29292.102    183.41835    -681.6866     223434.2   0.39930006    1432.7425 
  343000      3480000   -27070.786    281.80944    1844.6848   -28915.471   -29292.102    183.41835    -681.6866     223434.2   0.39930006     1436.839 
  344000      3490000   -27070.786    281.80944    1844.6848   -28915.471   -29292.102    183.41835    -681.6866     223434.2   0.39930006    1440.9405 
  345000      3500000   -27070.786    281.80944    1844.6848   -28915.471   -29292.102    183.41835    -681.6866     223434.2   0.39930006    1445.0255 
  346000      3510000   -27070.786    281.80944    1844.6848   -28915.471   -29292.102    183.41835    -681.6866     223434.2   0.39930006    1449.1221 
  347000      3520000   -27070.786    281.80944    1844.6848   -28915.471   -29292.102    183.41835    -681.6866     223434.2   0.39930006    1453.1926 
  348000      3530000   -27070.786    281.80944    1844.6848   -28915.471   -29292.102    183.41835    -681.6866     223434.2   0.39930006    1457.2799 
  349000      3540000   -27070.786    281.80944    1844.6848   -28915.471   -29292.102    183.41835    -681.6866     223434.2   0.39930006    1461.3723 
  350000      3550000   -27070.786    281.80944    1844.6848   -28915.471   -29292.102    183.41835    -681.6866     223434.2   0.39930006    1465.5135 
  351000      3560000   -27070.786    281.80944    1844.6848   -28915.471   -29292.102    183.41835    -681.6866     223434.2   0.39930006    1469.6914 
  352000      3570000   -27070.786    281.80944    1844.6848   -28915.471   -29292.102    183.41835    -681.6866     223434.2   0.39930006    1473.7759 
  353000      3580000   -27070.786    281.80944    1844.6848   -28915.471   -29292.102    183.41835    -681.6866     223434.2   0.39930006    1477.9726 
  354000      3590000   -27070.786    281.80944    1844.6848   -28915.471   -29292.102    183.41835    -681.6866     223434.2   0.39930006    1482.0749 
  355000      3600000   -27070.786    281.80944    1844.6848   -28915.471   -29292.102    183.41835    -681.6866     223434.2   0.39930006    1486.2315 
  356000      3610000   -27070.786    281.80944    1844.6848   -28915.471   -29292.102    183.41835    -681.6866     223434.2   0.39930006    1490.3314 
  357000      3620000   -27070.786    281.80944    1844.6848   -28915.471   -29292.102    183.41835    -681.6866     223434.2   0.39930006    1494.5853 
  358000      3630000   -27070.786    281.80944    1844.6848   -28915.471   -29292.102    183.41835    -681.6866     223434.2   0.39930006    1498.7501 
  359000      3640000   -27070.786    281.80944    1844.6848   -28915.471   -29292.102    183.41835    -681.6866     223434.2   0.39930006    1502.8454 
  360000      3650000   -27070.786    281.80944    1844.6848   -28915.471   -29292.102    183.41835    -681.6866     223434.2   0.39930006    1506.9291 
  361000      3660000   -27070.786    281.80944    1844.6848   -28915.471   -29292.102    183.41835    -681.6866     223434.2   0.39930006    1511.0251 
  362000      3670000   -27070.786    281.80944    1844.6848   -28915.471   -29292.102    183.41835    -681.6866     223434.2   0.39930006    1515.1316 
  363000      3680000   -27070.786    281.80944    1844.6848   -28915.471   -29292.102    183.41835    -681.6866     223434.2   0.39930006    1519.2493 
  364000      3690000   -27070.786    281.80944    1844.6848   -28915.471   -29292.102    183.41835    -681.6866     223434.2   0.39930006    1523.3432 
  365000      3700000   -27070.786    281.80944    1844.6848   -28915.471   -29292.102    183.41835    -681.6866     223434.2   0.39930006    1527.4853 
  366000      3710000   -27070.786    281.80944    1844.6848   -28915.471   -29292.102    183.41835    -681.6866     223434.2   0.39930006    1531.6234 
  367000      3720000   -27070.786    281.80944    1844.6848   -28915.471   -29292.102    183.41835    -681.6866     223434.2   0.39930006     1535.724 
  368000      3730000   -27070.786    281.80944    1844.6848   -28915.471   -29292.102    183.41835    -681.6866     223434.2   0.39930006    1539.8731 
  369000      3740000   -27070.786    281.80944    1844.6848   -28915.471   -29292.102    183.41835    -681.6866     223434.2   0.39930006    1543.9842 
  370000      3750000   -27070.786    281.80944    1844.6848   -28915.471   -29292.102    183.41835    -681.6866     223434.2   0.39930006    1548.0892 
  371000      3760000   -27070.786    281.80944    1844.6848   -28915.471   -29292.102    183.41835    -681.6866     223434.2   0.39930006    1552.3271 
  372000      3770000   -27070.786    281.80944    1844.6848   -28915.471   -29292.102    183.41835    -681.6866     223434.2   0.39930006    1556.4287 
  373000      3780000   -27070.786    281.80944    1844.6848   -28915.471   -29292.102    183.41835    -681.6866     223434.2   0.39930006    1560.5656 
  374000      3790000   -27070.786    281.80944    1844.6848   -28915.471   -29292.102    183.41835    -681.6866     223434.2   0.39930006    1564.6914 
  375000      3800000   -27070.786    281.80944    1844.6848   -28915.471   -29292.102    183.41835    -681.6866     223434.2   0.39930006    1568.8002 
  376000      3810000   -27070.786    281.80944    1844.6848   -28915.471   -29292.102    183.41835    -681.6866     223434.2   0.39930006    1572.9236 
  377000      3820000   -27070.786    281.80944    1844.6848   -28915.471   -29292.102    183.41835    -681.6866     223434.2   0.39930006    1577.0313 
  378000      3830000   -27070.786    281.80944    1844.6848   -28915.471   -29292.102    183.41835    -681.6866     223434.2   0.39930006    1581.1394 
  379000      3840000   -27070.786    281.80944    1844.6848   -28915.471   -29292.102    183.41835    -681.6866     223434.2   0.39930006    1585.2708 
  380000      3850000   -27070.786    281.80944    1844.6848   -28915.471   -29292.102    183.41835    -681.6866     223434.2   0.39930006    1589.4549 
  381000      3860000   -27070.786    281.80944    1844.6848   -28915.471   -29292.102    183.41835    -681.6866     223434.2   0.39930006    1593.5727 
  382000      3870000   -27070.786    281.80944    1844.6848   -28915.471   -29292.102    183.41835    -681.6866     223434.2   0.39930006    1597.7976 
  383000      3880000   -27070.786    281.80944    1844.6848   -28915.471   -29292.102    183.41835    -681.6866     223434.2   0.39930006    1601.8915 
  384000      3890000   -27070.786    281.80944    1844.6848   -28915.471   -29292.102    183.41835    -681.6866     223434.2   0.39930006    1606.0138 
  385000      3900000   -27070.786    281.80944    1844.6848   -28915.471   -29292.102    183.41835    -681.6866     223434.2   0.39930006    1610.0905 
  386000      3910000   -27070.786    281.80944    1844.6848   -28915.471   -29292.102    183.41835    -681.6866     223434.2   0.39930006    1614.3548 
  387000      3920000   -27070.786    281.80944    1844.6848   -28915.471   -29292.102    183.41835    -681.6866     223434.2   0.39930006    1618.5029 
  388000      3930000   -27070.786    281.80944    1844.6848   -28915.471   -29292.102    183.41835    -681.6866     223434.2   0.39930006    1622.6319 
  389000      3940000   -27070.786    281.80944    1844.6848   -28915.471   -29292.102    183.41835    -681.6866     223434.2   0.39930006    1626.7559 
  390000      3950000   -27070.786    281.80944    1844.6848   -28915.471   -29292.102    183.41835    -681.6866     223434.2   0.39930006    1630.8685 
  391000      3960000   -27070.786    281.80944    1844.6848   -28915.471   -29292.102    183.41835    -681.6866     223434.2   0.39930006    1634.9452 
  392000      3970000   -27070.786    281.80944    1844.6848   -28915.471   -29292.102    183.41835    -681.6866     223434.2   0.39930006    1639.0591 
  393000      3980000   -27070.786    281.80944    1844.6848   -28915.471   -29292.102    183.41835    -681.6866     223434.2   0.39930006    1643.1703 
  394000      3990000   -27070.786    281.80944    1844.6848   -28915.471   -29292.102    183.41835    -681.6866     223434.2   0.39930006    1647.2808 
  395000      4000000   -27070.786    281.80944    1844.6848   -28915.471   -29292.102    183.41835    -681.6866     223434.2   0.39930006    1651.4107 
  396000      4010000   -27070.786    281.80944    1844.6848   -28915.471   -29292.102    183.41835    -681.6866     223434.2   0.39930006    1655.5063 
  397000      4020000   -27070.786    281.80944    1844.6848   -28915.471   -29292.102    183.41835    -681.6866     223434.2   0.39930006    1659.4736 
  398000      4030000   -27070.786    281.80944    1844.6848   -28915.471   -29292.102    183.41835    -681.6866     223434.2   0.39930006    1663.3115 
  399000      4040000   -27070.786    281.80944    1844.6848   -28915.471   -29292.102    183.41835    -681.6866     223434.2   0.39930006       1666.8 
  400000      4050000   -27070.786    281.80944    1844.6848   -28915.471   -29292.102    183.41835    -681.6866     223434.2   0.39930006    1670.2836 
  401000      4060000   -27070.786    281.80944    1844.6848   -28915.471   -29292.102    183.41835    -681.6866     223434.2   0.39930006    1673.9425 
  402000      4070000   -27070.786    281.80944    1844.6848   -28915.471   -29292.102    183.41835    -681.6866     223434.2   0.39930006    1677.4264 
  403000      4080000   -27070.786    281.80944    1844.6848   -28915.471   -29292.102    183.41835    -681.6866     223434.2   0.39930006    1681.0188 
  404000      4090000   -27070.786    281.80944    1844.6848   -28915.471   -29292.102    183.41835    -681.6866     223434.2   0.39930006    1684.5046 
  405000      4100000   -27070.786    281.80944    1844.6848   -28915.471   -29292.102    183.41835    -681.6866     223434.2   0.39930006    1687.9911 
  406000      4110000   -27070.786    281.80944    1844.6848   -28915.471   -29292.102    183.41835    -681.6866     223434.2   0.39930006     1691.624 
  407000      4120000   -27070.786    281.80944    1844.6848   -28915.471   -29292.102    183.41835    -681.6866     223434.2   0.39930006    1695.1021 
  408000      4130000   -27070.786    281.80944    1844.6848   -28915.471   -29292.102    183.41835    -681.6866     223434.2   0.39930006    1698.5828 
  409000      4140000   -27070.786    281.80944    1844.6848   -28915.471   -29292.102    183.41835    -681.6866     223434.2   0.39930006    1702.0693 
  410000      4150000   -27070.786    281.80944    1844.6848   -28915.471   -29292.102    183.41835    -681.6866     223434.2   0.39930006    1705.5452 
  411000      4160000   -27070.786    281.80944    1844.6848   -28915.471   -29292.102    183.41835    -681.6866     223434.2   0.39930006    8912.0963 
  412000      4170000   -27070.786    281.80944    1844.6848   -28915.471   -29292.102    183.41835    -681.6866     223434.2   0.39930006    8916.8275 
  413000      4180000   -27070.786    281.80944    1844.6848   -28915.471   -29292.102    183.41835    -681.6866     223434.2   0.39930006     8920.453 
  414000      4190000   -27070.786    281.80944    1844.6848   -28915.471   -29292.102    183.41835    -681.6866     223434.2   0.39930006    8924.4183 
  415000      4200000   -27070.786    281.80944    1844.6848   -28915.471   -29292.102    183.41835    -681.6866     223434.2   0.39930006    8929.2923 
  416000      4210000   -27070.786    281.80944    1844.6848   -28915.471   -29292.102    183.41835    -681.6866     223434.2   0.39930006    8965.6995 
  417000      4220000   -27070.786    281.80944    1844.6848   -28915.471   -29292.102    183.41835    -681.6866     223434.2   0.39930006    8969.9714 
  418000      4230000   -27070.786    281.80944    1844.6848   -28915.471   -29292.102    183.41835    -681.6866     223434.2   0.39930006    8974.8777 
  419000      4240000   -27070.786    281.80944    1844.6848   -28915.471   -29292.102    183.41835    -681.6866     223434.2   0.39930006    8983.0088 
  420000      4250000   -27070.786    281.80944    1844.6848   -28915.471   -29292.102    183.41835    -681.6866     223434.2   0.39930006    8993.0316 
  421000      4260000   -27070.786    281.80944    1844.6848   -28915.471   -29292.102    183.41835    -681.6866     223434.2   0.39930006    9001.8472 
  422000      4270000   -27070.786    281.80944    1844.6848   -28915.471   -29292.102    183.41835    -681.6866     223434.2   0.39930006    33022.076 
  423000      4280000   -27070.786    281.80944    1844.6848   -28915.471   -29292.102    183.41835    -681.6866     223434.2   0.39930006    33032.634 
[...]
  878000      8830000   -27070.786    281.80944    1844.6848   -28915.471   -29292.102    183.41835    -681.6866     223434.2   0.39930006    38616.061 
  879000      8840000   -27070.786    281.80944    1844.6848   -28915.471   -29292.102    183.41835    -681.6866     223434.2   0.39930006    38619.522 
  880000      8850000   -27070.786    281.80944    1844.6848   -28915.471   -29292.102    183.41835    -681.6866     223434.2   0.39930006    38622.988 
  881000      8860000   -27070.786    281.80944    1844.6848   -28915.471   -29292.102    183.41835    -681.6866     223434.2   0.39930006    38626.433 
  882000      8870000   -27070.786    281.80944    1844.6848   -28915.471   -29292.102    183.41835    -681.6866     223434.2   0.39930006    38629.932 
  883000      8880000   -27070.786    281.80944    1844.6848   -28915.471   -29292.102    183.41835    -681.6866     223434.2   0.39930006    38633.385 
  884000      8890000   -27070.786    281.80944    1844.6848   -28915.471   -29292.102    183.41835    -681.6866     223434.2   0.39930006    38636.867 
  885000      8900000   -27070.786    281.80944    1844.6848   -28915.471   -29292.102    183.41835    -681.6866     223434.2   0.39930006    38640.347 
  886000      8910000   -27070.786    281.80944    1844.6848   -28915.471   -29292.102    183.41835    -681.6866     223434.2   0.39930006    38643.798 
  887000      8920000   -27070.786    281.80944    1844.6848   -28915.471   -29292.102    183.41835    -681.6866     223434.2   0.39930006    38647.269 
  888000      8930000   -27070.786    281.80944    1844.6848   -28915.471   -29292.102    183.41835    -681.6866     223434.2   0.39930006    38650.736 
  889000      8940000   -27070.786    281.80944    1844.6848   -28915.471   -29292.102    183.41835    -681.6866     223434.2   0.39930006    38654.317 
  890000      8950000   -27070.786    281.80944    1844.6848   -28915.471   -29292.102    183.41835    -681.6866     223434.2   0.39930006    38657.776 
  891000      8960000   -27070.786    281.80944    1844.6848   -28915.471   -29292.102    183.41835    -681.6866     223434.2   0.39930006    38661.275 
  892000      8970000   -27070.786    281.80944    1844.6848   -28915.471   -29292.102    183.41835    -681.6866     223434.2   0.39930006    38664.744 
  893000      8980000   -27070.786    281.80944    1844.6848   -28915.471   -29292.102    183.41835    -681.6866     223434.2   0.39930006    38668.233 
  894000      8990000   -27070.786    281.80944    1844.6848   -28915.471   -29292.102    183.41835    -681.6866     223434.2   0.39930006    38671.698 
  895000      9000000   -27070.786    281.80944    1844.6848   -28915.471   -29292.102    183.41835    -681.6866     223434.2   0.39930006    38675.172 
  896000      9010000   -27070.786    281.80944    1844.6848   -28915.471   -29292.102    183.41835    -681.6866     223434.2   0.39930006    38678.624 
  897000      9020000   -27070.786    281.80944    1844.6848   -28915.471   -29292.102    183.41835    -681.6866     223434.2   0.39930006    38682.078 
  898000      9030000   -27070.786    281.80944    1844.6848   -28915.471   -29292.102    183.41835    -681.6866     223434.2   0.39930006     38685.53 
  899000      9040000   -27070.786    281.80944    1844.6848   -28915.471   -29292.102    183.41835    -681.6866     223434.2   0.39930006    38688.983 
  900000      9050000   -27070.786    281.80944    1844.6848   -28915.471   -29292.102    183.41835    -681.6866     223434.2   0.39930006    38692.473 
  901000      9060000   -27070.786    281.80944    1844.6848   -28915.471   -29292.102    183.41835    -681.6866     223434.2   0.39930006    38695.968 
  902000      9070000   -27070.786    281.80944    1844.6848   -28915.471   -29292.102    183.41835    -681.6866     223434.2   0.39930006    38699.412 
  903000      9080000   -27070.786    281.80944    1844.6848   -28915.471   -29292.102    183.41835    -681.6866     223434.2   0.39930006    38702.881 
  904000      9090000   -27070.786    281.80944    1844.6848   -28915.471   -29292.102    183.41835    -681.6866     223434.2   0.39930006    38706.335 
  905000      9100000   -27070.786    281.80944    1844.6848   -28915.471   -29292.102    183.41835    -681.6866     223434.2   0.39930006    38709.801 
  906000      9110000   -27070.786    281.80944    1844.6848   -28915.471   -29292.102    183.41835    -681.6866     223434.2   0.39930006    38713.397 
  907000      9120000   -27070.786    281.80944    1844.6848   -28915.471   -29292.102    183.41835    -681.6866     223434.2   0.39930006    38716.857 
  908000      9130000   -27070.786    281.80944    1844.6848   -28915.471   -29292.102    183.41835    -681.6866     223434.2   0.39930006    38720.347 
  909000      9140000   -27070.786    281.80944    1844.6848   -28915.471   -29292.102    183.41835    -681.6866     223434.2   0.39930006    38723.806 
  910000      9150000   -27070.786    281.80944    1844.6848   -28915.471   -29292.102    183.41835    -681.6866     223434.2   0.39930006    38727.306 
  911000      9160000   -27070.786    281.80944    1844.6848   -28915.471   -29292.102    183.41835    -681.6866     223434.2   0.39930006     38730.76 
  912000      9170000   -27070.786    281.80944    1844.6848   -28915.471   -29292.102    183.41835    -681.6866     223434.2   0.39930006    38734.219 
  913000      9180000   -27070.786    281.80944    1844.6848   -28915.471   -29292.102    183.41835    -681.6866     223434.2   0.39930006    38737.688 
  914000      9190000   -27070.786    281.80944    1844.6848   -28915.471   -29292.102    183.41835    -681.6866     223434.2   0.39930006    38741.147 
  915000      9200000   -27070.786    281.80944    1844.6848   -28915.471   -29292.102    183.41835    -681.6866     223434.2   0.39930006    38744.634 
  916000      9210000   -27070.786    281.80944    1844.6848   -28915.471   -29292.102    183.41835    -681.6866     223434.2   0.39930006    38748.109 
  917000      9220000   -27070.786    281.80944    1844.6848   -28915.471   -29292.102    183.41835    -681.6866     223434.2   0.39930006    38751.577 
  918000      9230000   -27070.786    281.80944    1844.6848   -28915.471   -29292.102    183.41835    -681.6866     223434.2   0.39930006    38755.088 
  919000      9240000   -27070.786    281.80944    1844.6848   -28915.471   -29292.102    183.41835    -681.6866     223434.2   0.39930006    38758.548 
  920000      9250000   -27070.786    281.80944    1844.6848   -28915.471   -29292.102    183.41835    -681.6866     223434.2   0.39930006    38762.024 
  921000      9260000   -27070.786    281.80944    1844.6848   -28915.471   -29292.102    183.41835    -681.6866     223434.2   0.39930006    38765.529 
  922000      9270000   -27070.786    281.80944    1844.6848   -28915.471   -29292.102    183.41835    -681.6866     223434.2   0.39930006    38769.023 
  923000      9280000   -27070.786    281.80944    1844.6848   -28915.471   -29292.102    183.41835    -681.6866     223434.2   0.39930006      38772.6 
  924000      9290000   -27070.786    281.80944    1844.6848   -28915.471   -29292.102    183.41835    -681.6866     223434.2   0.39930006    38776.061 
  925000      9300000   -27070.786    281.80944    1844.6848   -28915.471   -29292.102    183.41835    -681.6866     223434.2   0.39930006    38779.546 
  926000      9310000   -27070.786    281.80944    1844.6848   -28915.471   -29292.102    183.41835    -681.6866     223434.2   0.39930006     38783.08 
  927000      9320000   -27070.786    281.80944    1844.6848   -28915.471   -29292.102    183.41835    -681.6866     223434.2   0.39930006     38786.53 
  928000      9330000   -27070.786    281.80944    1844.6848   -28915.471   -29292.102    183.41835    -681.6866     223434.2   0.39930006    38789.978 
  929000      9340000   -27070.786    281.80944    1844.6848   -28915.471   -29292.102    183.41835    -681.6866     223434.2   0.39930006    38793.468 
  930000      9350000   -27070.786    281.80944    1844.6848   -28915.471   -29292.102    183.41835    -681.6866     223434.2   0.39930006    38796.916 
  931000      9360000   -27070.786    281.80944    1844.6848   -28915.471   -29292.102    183.41835    -681.6866     223434.2   0.39930006    38800.386 
  932000      9370000   -27070.786    281.80944    1844.6848   -28915.471   -29292.102    183.41835    -681.6866     223434.2   0.39930006    38803.844 
  933000      9380000   -27070.786    281.80944    1844.6848   -28915.471   -29292.102    183.41835    -681.6866     223434.2   0.39930006    38807.303 
  934000      9390000   -27070.786    281.80944    1844.6848   -28915.471   -29292.102    183.41835    -681.6866     223434.2   0.39930006    38810.791 
  935000      9400000   -27070.786    281.80944    1844.6848   -28915.471   -29292.102    183.41835    -681.6866     223434.2   0.39930006    38814.256 
  936000      9410000   -27070.786    281.80944    1844.6848   -28915.471   -29292.102    183.41835    -681.6866     223434.2   0.39930006     38817.75 
  937000      9420000   -27070.786    281.80944    1844.6848   -28915.471   -29292.102    183.41835    -681.6866     223434.2   0.39930006    38821.237 
  938000      9430000   -27070.786    281.80944    1844.6848   -28915.471   -29292.102    183.41835    -681.6866     223434.2   0.39930006    38824.861 
  939000      9440000   -27070.786    281.80944    1844.6848   -28915.471   -29292.102    183.41835    -681.6866     223434.2   0.39930006    38828.412 
  940000      9450000   -27070.786    281.80944    1844.6848   -28915.471   -29292.102    183.41835    -681.6866     223434.2   0.39930006    38831.864 
  941000      9460000   -27070.786    281.80944    1844.6848   -28915.471   -29292.102    183.41835    -681.6866     223434.2   0.39930006    38835.434 
  942000      9470000   -27070.786    281.80944    1844.6848   -28915.471   -29292.102    183.41835    -681.6866     223434.2   0.39930006    38838.885 
  943000      9480000   -27070.786    281.80944    1844.6848   -28915.471   -29292.102    183.41835    -681.6866     223434.2   0.39930006    38842.408 
  944000      9490000   -27070.786    281.80944    1844.6848   -28915.471   -29292.102    183.41835    -681.6866     223434.2   0.39930006    38845.911 
  945000      9500000   -27070.786    281.80944    1844.6848   -28915.471   -29292.102    183.41835    -681.6866     223434.2   0.39930006    38849.374 
  946000      9510000   -27070.786    281.80944    1844.6848   -28915.471   -29292.102    183.41835    -681.6866     223434.2   0.39930006    38852.839 
  947000      9520000   -27070.786    281.80944    1844.6848   -28915.471   -29292.102    183.41835    -681.6866     223434.2   0.39930006    38856.292 
  948000      9530000   -27070.786    281.80944    1844.6848   -28915.471   -29292.102    183.41835    -681.6866     223434.2   0.39930006    38859.827 
  949000      9540000   -27070.786    281.80944    1844.6848   -28915.471   -29292.102    183.41835    -681.6866     223434.2   0.39930006     38863.28 
  950000      9550000   -27070.786    281.80944    1844.6848   -28915.471   -29292.102    183.41835    -681.6866     223434.2   0.39930006    38866.727 
  951000      9560000   -27070.786    281.80944    1844.6848   -28915.471   -29292.102    183.41835    -681.6866     223434.2   0.39930006    38870.216 
  952000      9570000   -27070.786    281.80944    1844.6848   -28915.471   -29292.102    183.41835    -681.6866     223434.2   0.39930006    38873.676 
  953000      9580000   -27070.786    281.80944    1844.6848   -28915.471   -29292.102    183.41835    -681.6866     223434.2   0.39930006    38877.127 
  954000      9590000   -27070.786    281.80944    1844.6848   -28915.471   -29292.102    183.41835    -681.6866     223434.2   0.39930006    38880.604 
  955000      9600000   -27070.786    281.80944    1844.6848   -28915.471   -29292.102    183.41835    -681.6866     223434.2   0.39930006    38884.083 
  956000      9610000   -27070.786    281.80944    1844.6848   -28915.471   -29292.102    183.41835    -681.6866     223434.2   0.39930006    38887.537 
  957000      9620000   -27070.786    281.80944    1844.6848   -28915.471   -29292.102    183.41835    -681.6866     223434.2   0.39930006    38890.993 
  958000      9630000   -27070.786    281.80944    1844.6848   -28915.471   -29292.102    183.41835    -681.6866     223434.2   0.39930006    38894.557 
  959000      9640000   -27070.786    281.80944    1844.6848   -28915.471   -29292.102    183.41835    -681.6866     223434.2   0.39930006    38898.013 
  960000      9650000   -27070.786    281.80944    1844.6848   -28915.471   -29292.102    183.41835    -681.6866     223434.2   0.39930006    38901.513 
  961000      9660000   -27070.786    281.80944    1844.6848   -28915.471   -29292.102    183.41835    -681.6866     223434.2   0.39930006    38905.003 
  962000      9670000   -27070.786    281.80944    1844.6848   -28915.471   -29292.102    183.41835    -681.6866     223434.2   0.39930006    38908.467 
  963000      9680000   -27070.786    281.80944    1844.6848   -28915.471   -29292.102    183.41835    -681.6866     223434.2   0.39930006    38911.969 
  964000      9690000   -27070.786    281.80944    1844.6848   -28915.471   -29292.102    183.41835    -681.6866     223434.2   0.39930006    38915.428 
  965000      9700000   -27070.786    281.80944    1844.6848   -28915.471   -29292.102    183.41835    -681.6866     223434.2   0.39930006     38918.88 
  966000      9710000   -27070.786    281.80944    1844.6848   -28915.471   -29292.102    183.41835    -681.6866     223434.2   0.39930006    38922.362 
  967000      9720000   -27070.786    281.80944    1844.6848   -28915.471   -29292.102    183.41835    -681.6866     223434.2   0.39930006    38925.835 
  968000      9730000   -27070.786    281.80944    1844.6848   -28915.471   -29292.102    183.41835    -681.6866     223434.2   0.39930006    38929.421 
  969000      9740000   -27070.786    281.80944    1844.6848   -28915.471   -29292.102    183.41835    -681.6866     223434.2   0.39930006    38932.963 
  970000      9750000   -27070.786    281.80944    1844.6848   -28915.471   -29292.102    183.41835    -681.6866     223434.2   0.39930006     38936.43 
  971000      9760000   -27070.786    281.80944    1844.6848   -28915.471   -29292.102    183.41835    -681.6866     223434.2   0.39930006    38939.972 
  972000      9770000   -27070.786    281.80944    1844.6848   -28915.471   -29292.102    183.41835    -681.6866     223434.2   0.39930006    38943.434 
  973000      9780000   -27070.786    281.80944    1844.6848   -28915.471   -29292.102    183.41835    -681.6866     223434.2   0.39930006    38946.897 
  974000      9790000   -27070.786    281.80944    1844.6848   -28915.471   -29292.102    183.41835    -681.6866     223434.2   0.39930006    38950.361 
  975000      9800000   -27070.786    281.80944    1844.6848   -28915.471   -29292.102    183.41835    -681.6866     223434.2   0.39930006    38953.925 
  976000      9810000   -27070.786    281.80944    1844.6848   -28915.471   -29292.102    183.41835    -681.6866     223434.2   0.39930006    38957.723 
  977000      9820000   -27070.786    281.80944    1844.6848   -28915.471   -29292.102    183.41835    -681.6866     223434.2   0.39930006    38961.233 
  978000      9830000   -27070.786    281.80944    1844.6848   -28915.471   -29292.102    183.41835    -681.6866     223434.2   0.39930006     38964.77 
  979000      9840000   -27070.786    281.80944    1844.6848   -28915.471   -29292.102    183.41835    -681.6866     223434.2   0.39930006    38968.265 
  980000      9850000   -27070.786    281.80944    1844.6848   -28915.471   -29292.102    183.41835    -681.6866     223434.2   0.39930006    38971.759 
  981000      9860000   -27070.786    281.80944    1844.6848   -28915.471   -29292.102    183.41835    -681.6866     223434.2   0.39930006    38975.222 
  982000      9870000   -27070.786    281.80944    1844.6848   -28915.471   -29292.102    183.41835    -681.6866     223434.2   0.39930006    38978.686 
  983000      9880000   -27070.786    281.80944    1844.6848   -28915.471   -29292.102    183.41835    -681.6866     223434.2   0.39930006    38982.162 
  984000      9890000   -27070.786    281.80944    1844.6848   -28915.471   -29292.102    183.41835    -681.6866     223434.2   0.39930006    38985.615 
  985000      9900000   -27070.786    281.80944    1844.6848   -28915.471   -29292.102    183.41835    -681.6866     223434.2   0.39930006    38989.095 
  986000      9910000   -27070.786    281.80944    1844.6848   -28915.471   -29292.102    183.41835    -681.6866     223434.2   0.39930006    38992.593 
  987000      9920000   -27070.786    281.80944    1844.6848   -28915.471   -29292.102    183.41835    -681.6866     223434.2   0.39930006    38996.049 
  988000      9930000   -27070.786    281.80944    1844.6848   -28915.471   -29292.102    183.41835    -681.6866     223434.2   0.39930006    38999.496 
  989000      9940000   -27070.786    281.80944    1844.6848   -28915.471   -29292.102    183.41835    -681.6866     223434.2   0.39930006     39002.95 
  990000      9950000   -27070.786    281.80944    1844.6848   -28915.471   -29292.102    183.41835    -681.6866     223434.2   0.39930006    39006.418 
  991000      9960000   -27070.786    281.80944    1844.6848   -28915.471   -29292.102    183.41835    -681.6866     223434.2   0.39930006    39009.888 
  992000      9970000   -27070.786    281.80944    1844.6848   -28915.471   -29292.102    183.41835    -681.6866     223434.2   0.39930006    39013.631 
  993000      9980000   -27070.786    281.80944    1844.6848   -28915.471   -29292.102    183.41835    -681.6866     223434.2   0.39930006    39017.109 
  994000      9990000   -27070.786    281.80944    1844.6848   -28915.471   -29292.102    183.41835    -681.6866     223434.2   0.39930006     39020.59 
  995000     10000000   -27070.786    281.80944    1844.6848   -28915.471   -29292.102    183.41835    -681.6866     223434.2   0.39930006    39024.049 
  996000     10010000   -27070.786    281.80944    1844.6848   -28915.471   -29292.102    183.41835    -681.6866     223434.2   0.39930006    39027.597 
  997000     10020000   -27070.786    281.80944    1844.6848   -28915.471   -29292.102    183.41835    -681.6866     223434.2   0.39930006    39031.106 
  998000     10030000   -27070.786    281.80944    1844.6848   -28915.471   -29292.102    183.41835    -681.6866     223434.2   0.39930006    39034.573 
  999000     10040000   -27070.786    281.80944    1844.6848   -28915.471   -29292.102    183.41835    -681.6866     223434.2   0.39930006    39038.072 
 1000000     10050000   -27070.786    281.80944    1844.6848   -28915.471   -29292.102    183.41835    -681.6866     223434.2   0.39930006    39041.526 
Loop time of 39041.5 on 2 procs for 1000000 steps with 3375 atoms

Performance: 22.130 ns/day, 1.084 hours/ns, 25.614 timesteps/s
9.6% CPU use with 2 MPI tasks x no OpenMP threads

MPI task timing breakdown:
Section |  min time  |  avg time  |  max time  |%varavg| %total
---------------------------------------------------------------
Pair    | 38633      | 38764      | 38895      |  66.6 | 99.29
Neigh   | 0          | 0          | 0          |   0.0 |  0.00
Comm    | 74.251     | 206.27     | 338.28     | 919.2 |  0.53
Output  | 0.63241    | 0.74159    | 0.85078    |  12.7 |  0.00
Modify  | 54.39      | 54.576     | 54.762     |   2.5 |  0.14
Other   |            | 16.14      |            |       |  0.04

Nlocal:    1687.5 ave 1717 max 1658 min
Histogram: 1 0 0 0 0 0 0 0 0 1
Nghost:    397 ave 424 max 370 min
Histogram: 1 0 0 0 0 0 0 0 0 1
Neighs:    0 ave 0 max 0 min
Histogram: 2 0 0 0 0 0 0 0 0 0
FullNghs:  29889 ave 31165 max 28613 min
Histogram: 1 0 0 0 0 0 0 0 0 1

Total # of neighbors = 59778
Ave neighs/atom = 17.712
Neighbor list builds = 0
Dangerous builds = 0



Total wall time: 10:51:24
