LAMMPS (11 Aug 2017)
units real
dimension 3
newton on
processors * * *
boundary p p p
atom_style atomic
read_data system.data
  orthogonal box = (0 0 0) to (42 42 42)
  1 by 1 by 2 MPI processor grid
  reading atoms ...
  2197 atoms


mass 1 18.015
#mass 2 10

group mW type 1
2197 atoms in group mW
#group wall type 2

pair_style sw
pair_coeff * * system.in.sw mW mW

neighbor 2.0 bin

timestep ${Timestep}
timestep 10
min_style cg
run_style verlet

compute mWtemp mW temp
thermo $(v_psStride*1000/v_Timestep)
thermo 1000
thermo_style custom step time etotal c_mWtemp ke pe enthalpy temp press vol density cpu
thermo_modify flush yes



dump d1 all xtc $(v_psStride*1000/v_Timestep) ${trjFile}
dump d1 all xtc 1000 ${trjFile}
dump d1 all xtc 1000 ./test1.xtc

minimize 1e-13 1e-15 5000 50000
WARNING: Using 'neigh_modify every 1 delay 0 check yes' setting during minimization (../min.cpp:168)
Neighbor list info ...
  update every 1 steps, delay 0 steps, check yes
  max neighbors/atom: 2000, page size: 100000
  master list distance cutoff = 6.3065
  ghost atom cutoff = 6.3065
  binsize = 3.15325, bins = 14 14 14
  1 neighbor lists, perpetual/occasional/extra = 1 0 0
  (1) pair sw, perpetual
      attributes: full, newton on
      pair build: full/bin/atomonly
      stencil: full/bin/3d
      bin: standard
Per MPI rank memory allocation (min/avg/max) = 4.068 | 4.07 | 4.071 Mbytes
Step Time TotEng c_mWtemp KinEng PotEng Enthalpy Temp Press Volume Density CPU 
       0            0   -23373.432            0            0   -23373.432   -25062.794            0   -1563.5034        74088   0.88708556            0 
    1000        10000   -24141.477            0            0   -24141.477   -24313.056            0   -158.79679        74088   0.88708556     16.96815 
    1780        17800   -24217.824            0            0   -24217.824   -24428.696            0   -195.16228        74088   0.88708556    28.781702 
Loop time of 28.783 on 2 procs for 1780 steps with 2197 atoms

84.5% CPU use with 2 MPI tasks x no OpenMP threads

Minimization stats:
  Stopping criterion = energy tolerance
  Energy initial, next-to-last, final = 
        -23373.4323962     -24217.8240595     -24217.8240595
  Force two-norm initial, final = 61.7629 0.00032269
  Force max component initial, final = 2.49729 4.4852e-05
  Final line search alpha, max atom move = 1 4.4852e-05
  Iterations, force evaluations = 1780 3055

MPI task timing breakdown:
Section |  min time  |  avg time  |  max time  |%varavg| %total
---------------------------------------------------------------
Pair    | 24.72      | 24.796     | 24.871     |   1.5 | 86.15
Neigh   | 0.14317    | 0.14611    | 0.14904    |   0.8 |  0.51
Comm    | 3.3504     | 3.5082     | 3.6659     |   8.4 | 12.19
Output  | 0.000513   | 0.0005375  | 0.000562   |   0.0 |  0.00
Modify  | 0          | 0          | 0          |   0.0 |  0.00
Other   |            | 0.3323     |            |       |  1.15

Nlocal:    1098.5 ave 1104 max 1093 min
Histogram: 1 0 0 0 0 0 0 0 0 1
Nghost:    1544.5 ave 1570 max 1519 min
Histogram: 1 0 0 0 0 0 0 0 0 1
Neighs:    0 ave 0 max 0 min
Histogram: 2 0 0 0 0 0 0 0 0 0
FullNghs:  36445 ave 36866 max 36024 min
Histogram: 1 0 0 0 0 0 0 0 0 1

Total # of neighbors = 72890
Ave neighs/atom = 33.1771
Neighbor list builds = 52
Dangerous builds = 0

velocity mW create ${T0} ${nRand} dist gaussian mom yes rot yes
velocity mW create 280 ${nRand} dist gaussian mom yes rot yes
velocity mW create 280 16724 dist gaussian mom yes rot yes

timestep $(v_Timestep/2)
timestep 5
fix f1 mW nvt temp ${T0} ${T0} $(100*v_Timestep/2) tchain 10
fix f1 mW nvt temp 280 ${T0} $(100*v_Timestep/2) tchain 10
fix f1 mW nvt temp 280 280 $(100*v_Timestep/2) tchain 10
fix f1 mW nvt temp 280 280 500 tchain 10
fix_modify f1 temp mWtemp
WARNING: Temperature for fix modify is not for group all (../fix_nh.cpp:1395)
run $(50*1000/v_Timestep*2)
run 10000
Per MPI rank memory allocation (min/avg/max) = 2.945 | 2.945 | 2.946 Mbytes
Step Time TotEng c_mWtemp KinEng PotEng Enthalpy Temp Press Volume Density CPU 
    1780            0   -22384.984          280    1832.8405   -24217.824   -21373.962          280    935.69982        74088   0.88708556            0 
    2000         1100   -22070.935    169.98635    1112.7067   -23183.641   -22035.208    169.98635    33.065093        74088   0.88708556     2.026812 
    3000         6100   -20656.007    267.50347    1751.0399   -22407.047   -21188.859    267.50347   -493.15458        74088   0.88708556    10.057851 
    4000        11100   -20129.097    286.86901    1877.8041   -22006.901   -21545.854    286.86901   -1311.2089        74088   0.88708556    17.748694 
    5000        16100   -20153.468    287.43134     1881.485   -22034.953   -21479.012    287.43134    -1226.791        74088   0.88708556    25.636032 
    6000        21100   -20267.275    286.38924    1874.6635   -22141.938   -21670.612    286.38924    -1298.788        74088   0.88708556    33.442362 
    7000        26100   -20212.197    281.13051    1840.2406   -22052.438    -21394.12    281.13051   -1093.8695        74088   0.88708556    40.857634 
    8000        31100   -20152.604      279.853    1831.8782   -21984.482   -20854.618      279.853   -649.71329        74088   0.88708556    48.647604 
    9000        36100   -20279.076    271.48626    1777.1107   -22056.186   -21183.461    271.48626   -837.00805        74088   0.88708556     56.17404 
   10000        41100   -20320.701     278.3309    1821.9148   -22142.615   -21217.608     278.3309   -830.08766        74088   0.88708556    63.773118 
   11000        46100     -20237.7    278.71549    1824.4323   -22062.132   -20939.396    278.71549   -649.41946        74088   0.88708556    71.386838 
   11780        50000   -20204.493    288.32315    1887.3226   -22091.815    -21443.92    288.32315   -1147.0895        74088   0.88708556    77.391183 
Loop time of 77.3913 on 2 procs for 10000 steps with 2197 atoms

Performance: 55.820 ns/day, 0.430 hours/ns, 129.214 timesteps/s
93.1% CPU use with 2 MPI tasks x no OpenMP threads

MPI task timing breakdown:
Section |  min time  |  avg time  |  max time  |%varavg| %total
---------------------------------------------------------------
Pair    | 65.423     | 66.624     | 67.824     |  14.7 | 86.09
Neigh   | 1.9329     | 1.9472     | 1.9614     |   1.0 |  2.52
Comm    | 7.0031     | 8.1891     | 9.3751     |  41.4 | 10.58
Output  | 0.006425   | 0.006688   | 0.006951   |   0.3 |  0.01
Modify  | 0.49893    | 0.50553    | 0.51213    |   0.9 |  0.65
Other   |            | 0.1192     |            |       |  0.15

Nlocal:    1098.5 ave 1117 max 1080 min
Histogram: 1 0 0 0 0 0 0 0 0 1
Nghost:    1632.5 ave 1644 max 1621 min
Histogram: 1 0 0 0 0 0 0 0 0 1
Neighs:    0 ave 0 max 0 min
Histogram: 2 0 0 0 0 0 0 0 0 0
FullNghs:  34945 ave 35702 max 34188 min
Histogram: 1 0 0 0 0 0 0 0 0 1

Total # of neighbors = 69890
Ave neighs/atom = 31.8116
Neighbor list builds = 666
Dangerous builds = 1


unfix f1
fix f2 mW npt temp ${T1} ${T1} $(100*v_Timestep) tchain 10 iso 1.0 1.0 $(1000*v_Timestep/2) pchain 10
fix f2 mW npt temp 280 ${T1} $(100*v_Timestep) tchain 10 iso 1.0 1.0 $(1000*v_Timestep/2) pchain 10
fix f2 mW npt temp 280 280 $(100*v_Timestep) tchain 10 iso 1.0 1.0 $(1000*v_Timestep/2) pchain 10
fix f2 mW npt temp 280 280 1000 tchain 10 iso 1.0 1.0 $(1000*v_Timestep/2) pchain 10
fix f2 mW npt temp 280 280 1000 tchain 10 iso 1.0 1.0 5000 pchain 10
fix_modify f2 temp mWtemp
WARNING: Temperature for fix modify is not for group all (../fix_nh.cpp:1395)

reset_timestep 0
run 0
Per MPI rank memory allocation (min/avg/max) = 2.949 | 2.949 | 2.949 Mbytes
Step Time TotEng c_mWtemp KinEng PotEng Enthalpy Temp Press Volume Density CPU 
       0        50000   -20204.493    288.32315    1887.3226   -22091.815    -21443.92    288.32315   -1147.0895        74088   0.88708556            0 
Loop time of 4.5e-06 on 2 procs for 0 steps with 2197 atoms

77.8% CPU use with 2 MPI tasks x no OpenMP threads

MPI task timing breakdown:
Section |  min time  |  avg time  |  max time  |%varavg| %total
---------------------------------------------------------------
Pair    | 0          | 0          | 0          |   0.0 |  0.00
Neigh   | 0          | 0          | 0          |   0.0 |  0.00
Comm    | 0          | 0          | 0          |   0.0 |  0.00
Output  | 0          | 0          | 0          |   0.0 |  0.00
Modify  | 0          | 0          | 0          |   0.0 |  0.00
Other   |            | 4.5e-06    |            |       |100.00

Nlocal:    1098.5 ave 1119 max 1078 min
Histogram: 1 0 0 0 0 0 0 0 0 1
Nghost:    1635 ave 1649 max 1621 min
Histogram: 1 0 0 0 0 0 0 0 0 1
Neighs:    0 ave 0 max 0 min
Histogram: 2 0 0 0 0 0 0 0 0 0
FullNghs:  35023 ave 35722 max 34324 min
Histogram: 1 0 0 0 0 0 0 0 0 1

Total # of neighbors = 70046
Ave neighs/atom = 31.8826
Neighbor list builds = 0
Dangerous builds = 0

timestep ${Timestep}
timestep 10
run $(v_nsRunTime*1000000/v_Timestep)
run 100000
Per MPI rank memory allocation (min/avg/max) = 2.949 | 2.949 | 2.949 Mbytes
Step Time TotEng c_mWtemp KinEng PotEng Enthalpy Temp Press Volume Density CPU 
       0        50000   -20204.493    288.32315    1887.3226   -22091.815    -21443.92    288.32315   -1147.0895        74088   0.88708556            0 
    1000        60000   -20554.769    276.64141    1810.8556   -22365.624   -20508.624    276.64141    48.192686    65655.148    1.0010243     8.477407 
    2000        70000   -20563.188    281.85779    1845.0013   -22408.189   -20424.556    281.85779    145.49995    65331.511    1.0059831    17.216396 
    3000        80000   -20417.833    281.02976    1839.5812   -22257.415   -20795.121    281.02976    -393.8257    65689.072    1.0005073    26.134141 
    4000        90000   -20481.836    279.18255    1827.4896   -22309.326   -20763.765    279.18255    -294.5072     65639.99    1.0012554    35.166242 
    5000       100000   -20491.605    284.32223    1861.1332   -22352.738   -20296.146    284.32223     204.6542    65487.293      1.00359    43.990617 
    6000       110000   -20517.438    279.50968    1829.6309   -22347.069   -20030.093    279.50968    512.26185     65233.21     1.007499    52.395899 
    7000       120000   -20327.032    285.22754    1867.0592   -22194.091   -20166.545    285.22754    166.87927    65941.892   0.99667136    60.905506 
    8000       130000   -20358.535    290.46687    1901.3551    -22259.89   -20069.033    290.46687    302.20743     65685.75    1.0005579    69.550476 
    9000       140000   -20511.888     281.9467    1845.5833   -22357.471   -21080.042     281.9467   -592.90541    65706.009    1.0002494    78.035486 
   10000       150000   -20558.568    267.10472    1748.4298   -22306.998   -20640.688    267.10472   -85.710648    65696.373    1.0003961    86.515308 
   11000       160000   -20404.184    282.60107    1849.8667   -22254.051    -20056.93    282.60107    362.73623    65641.807    1.0012277    95.120449 
   12000       170000   -20437.302      272.046    1780.7748   -22218.077   -20870.125      272.046   -450.23971    65915.994   0.99706294    103.48574 
   13000       180000   -20430.633    281.80915    1844.6829   -22275.316   -20102.431    281.80915    342.78454    65651.398    1.0010814    111.92836 
   14000       190000   -20500.741    283.26028    1854.1818   -22354.922   -20898.841    283.26028   -414.80613    65806.926   0.99871548     120.2788 
   15000       200000   -20462.266    286.77845    1877.2113   -22339.477   -20587.744    286.77845   -130.90172    65727.737   0.99991873    128.68368 
   16000       210000   -20583.312    277.34772    1815.4791   -22398.791   -20879.654    277.34772   -308.84885    65791.854   0.99894427    137.04529 
   17000       220000   -20462.479     276.1657    1807.7417   -22270.221   -20227.487     276.1657    246.48393     65371.76    1.0053637    145.51311 
   18000       230000   -20506.171    283.07405    1852.9628   -22359.134   -20689.609    283.07405   -192.16119    65455.788    1.0040731    154.21279 
   19000       240000   -20416.494    281.29929    1841.3454   -22257.839   -20479.954    281.29929   -66.076131    65853.907   0.99800297    162.72918 
   20000       250000    -20363.13     288.3658    1887.6018   -22250.732   -20229.701     288.3658     140.1937    65259.889    1.0070871       171.17 
   21000       260000   -20487.248    281.94963    1845.6025    -22332.85   -20652.698    281.94963   -173.14649    65520.792    1.0030769    179.61544 
   22000       270000   -20457.015     281.7346    1844.1949    -22301.21   -20587.101     281.7346   -136.14556     65516.65    1.0031404    188.05342 
   23000       280000   -20505.008    284.36109    1861.3876   -22366.396   -20893.131    284.36109   -405.86293    65571.265    1.0023048    196.46063 
   24000       290000   -20470.485    270.89296    1773.2271   -22243.713   -19952.532    270.89296    544.42791    65234.062    1.0074859     205.1085 
   25000       300000   -20372.831    288.74258    1890.0682   -22262.899   -20968.789    288.74258   -618.44215     66075.51   0.99465588    213.74308 
   26000       310000   -20474.909    269.89459    1766.6919   -22241.601   -20306.279    269.89459    177.03896    65311.506    1.0062912    222.31182 
   27000       320000   -20534.635    276.89353     1812.506   -22347.141   -20388.846    276.89353     153.1235    65284.307    1.0067105    230.79697 
   28000       330000   -20476.743    279.09711    1826.9303   -22303.673   -20628.508    279.09711   -158.91102    65485.127    1.0036232     239.2518 
   29000       340000   -20486.104    284.74222    1863.8824   -22349.986   -20743.361    284.74222   -268.35356    65733.054   0.99983784    247.65839 
   30000       350000   -20472.969    280.98354    1839.2786   -22312.248   -20073.516    280.98354    417.61372    65586.564     1.002071    256.09025 
   31000       360000   -20474.569    274.35762    1795.9063   -22270.475   -20626.011    274.35762    -158.1628    65654.948    1.0010273    264.51607 
   32000       370000   -20500.153    281.92737    1845.4568    -22345.61   -21120.437    281.92737   -644.04615    66038.561   0.99521241    273.15099 
   33000       380000    -20373.89    283.43552    1855.3289   -22229.219   -20117.781    283.43552    266.60921    65868.126   0.99778753    281.60604 
   34000       390000   -20492.426    272.44195    1783.3666   -22275.792   -21307.719    272.44195   -844.41085    66203.969   0.99272591    290.05297 
   35000       400000   -20447.501    285.16398    1866.6432   -22314.144   -20505.562    285.16398   -60.629673    65662.805    1.0009075    298.45844 
   36000       410000   -20572.163    273.03067    1787.2202   -22359.383   -20743.533    273.03067   -179.22571    65563.108    1.0024295    306.80229 
   37000       420000   -20449.209    285.12138    1866.3643   -22315.573   -20501.128    285.12138   -54.121852    65777.512   0.99916208    315.20511 
   38000       430000   -20458.692    283.48684    1855.6648   -22314.357   -20459.812    283.48684   -1.1734303    65431.504    1.0044457    323.59864 
   39000       440000    -20456.87    281.42649    1842.1781   -22299.048   -21059.235    281.42649   -626.20304    65958.147   0.99642574    332.13939 
   40000       450000   -20449.684    281.16188     1840.446    -22290.13    -20599.35    281.16188   -156.17354    65711.597    1.0001643    340.60042 
   41000       460000   -20437.404    285.87962    1871.3277   -22308.731   -20377.314    285.87962    62.538969    65882.746   0.99756612    348.99412 
   42000       470000   -20516.159    283.88054    1858.2419   -22374.401   -19888.039    283.88054    656.90363    65563.947    1.0024167    357.42867 
   43000       480000   -20400.709    288.56417    1888.9003   -22289.609   -20017.653    288.56417    402.79572    65208.018    1.0078882     365.8488 
   44000       490000   -20540.381    273.94111    1793.1798   -22333.561    -20486.15    273.94111    56.925778     65322.85    1.0061165    374.33105 
   45000       500000   -20429.599    282.38903    1848.4788   -22278.078   -20276.703    282.38903     159.0668    65908.511   0.99717615    382.74282 
   46000       510000   -20490.223    277.67667    1817.6323   -22307.855   -20661.054    277.67667   -178.03491    65793.714   0.99891603    391.43117 
   47000       520000    -20496.77    286.40894    1874.7925   -22371.562   -20844.167    286.40894   -360.75169    66030.173   0.99533883    399.82507 
   48000       530000   -20464.991    274.22082    1795.0108   -22260.002   -20347.968    274.22082    122.35634    65579.877    1.0021732     408.2619 
   49000       540000   -20366.269    284.36832    1861.4349   -22227.704   -20508.346    284.36832   -147.55019    66024.884   0.99541856     416.7783 
   50000       550000   -20541.688    272.09631    1781.1041   -22322.792   -21130.852    272.09631   -612.21705    65986.403   0.99599906    425.10417 
   51000       560000   -20414.332    281.00247    1839.4025   -22253.735    -20804.16    281.00247   -404.08162    66149.772   0.99353925     433.5302 
   52000       570000   -20508.825    280.42366    1835.6137   -22344.439   -20693.126    280.42366   -193.41686    65336.661    1.0059038     441.8884 
   53000       580000   -20433.411      277.083    1813.7462   -22247.157   -20007.691      277.083    443.59833    65804.959   0.99874533    450.53692 
   54000       590000   -20509.479    275.61039    1804.1067   -22313.586   -20866.446    275.61039   -370.32543    66095.021   0.99436227    458.99376 
   55000       600000   -20480.175    276.25026    1808.2952    -22288.47   -20410.699    276.25026    72.645988    65576.518    1.0022245    467.39625 
   56000       610000   -20513.513    274.15849    1794.6028   -22308.116   -20893.557    274.15849   -397.03382    65634.111    1.0013451     476.0503 
   57000       620000   -20479.323    279.29624    1828.2338   -22307.557   -20944.438    279.29624   -484.34717     65845.67   0.99812782    484.42841 
   58000       630000   -20389.975    277.26289    1814.9238   -22204.899   -20531.102    277.26289   -147.22715    65727.209   0.99992676    492.82742 
   59000       640000   -20514.951    278.64596    1823.9771   -22338.928   -19963.308    278.64596    577.73062    65472.128    1.0038225    501.27178 
   60000       650000   -20544.213    269.68216    1765.3014   -22309.514    -20938.85    269.68216   -410.66833    65891.818   0.99742877    509.81907 
   61000       660000   -20491.251    282.22368    1847.3964   -22338.647   -20354.397    282.22368    143.37607    65449.276     1.004173    518.16014 
   62000       670000   -20494.416    287.93968    1884.8125   -22379.229   -20077.736    287.93968    438.92169    65093.793    1.0096569     527.0198 
   63000       680000   -20493.419    277.79475    1818.4052   -22311.824   -20612.285    277.79475   -124.23077     65607.39    1.0017529    535.42433 
   64000       690000   -20391.102    278.52619    1823.1931   -22214.295    -20299.71    278.52619    95.389655    65694.513    1.0004244    543.85194 
   65000       700000   -20518.336    271.37528    1776.3843    -22294.72    -20337.09    271.37528    188.32863    65989.471   0.99595276    552.24289 
   66000       710000   -20509.921    274.00732    1793.6132   -22303.535   -20369.304    274.00732    146.45437    65835.338   0.99828446    560.61038 
   67000       720000   -20392.832    282.31374    1847.9859   -22240.818    -20916.31    282.31374   -542.44231    66171.277   0.99321637    569.23139 
   68000       730000   -20509.813    280.12167    1833.6369   -22343.449   -19747.666    280.12167    796.91253    65577.044    1.0022165    577.66481 
   69000       740000   -20543.609    281.02817    1839.5707    -22383.18    -20880.99    281.02817   -352.62325    65604.474    1.0017975    586.05047 
   70000       750000   -20401.401    298.83235    1956.1144   -22357.515   -20374.317    298.83235    28.336364    65538.339    1.0028084     594.4139 
   71000       760000   -20500.703    277.89094    1819.0349   -22319.738   -20277.766    277.89094     234.0869    65302.451    1.0064308     602.6718 
   72000       770000   -20454.361    280.84453    1838.3687    -22292.73   -20180.031    280.84453    287.53244    65420.009    1.0046222     610.9312 
   73000       780000   -20418.895    291.11709    1905.6114   -22324.506    -19528.04    291.11709    934.49086    65366.617    1.0054428    619.18901 
   74000       790000   -20503.667    278.57139     1823.489   -22327.156   -20497.209    278.57139    6.7758816    65358.998      1.00556    627.50972 
   75000       800000   -20428.106    282.03302    1846.1483   -22274.254   -20391.737    282.03302    37.945662    65717.889    1.0000686    635.79852 
   76000       810000   -20551.479    277.45113    1816.1559   -22367.635   -20629.838    277.45113   -81.827457    65662.207    1.0009166    644.02366 
   77000       820000    -20460.31     280.6305    1836.9676   -22297.278   -19964.396     280.6305    521.93693    65149.813    1.0087887    652.21577 
   78000       830000   -20407.266    288.91018    1891.1653   -22298.432   -19825.565    288.91018    609.66727    65423.148     1.004574    661.88704 
   79000       840000   -20490.822    276.57577     1810.426   -22301.248   -20075.439    276.57577    436.67588    65224.825    1.0076285    672.21725 
   80000       850000   -20559.342    275.86922     1805.801   -22365.143   -20329.367    275.86922    240.80301    65485.218    1.0036218    684.11919 
   81000       860000   -20485.182    279.82554    1831.6985    -22316.88   -20330.646    279.82554    161.74518    65512.321    1.0032066    692.66695 
   82000       870000    -20538.55    279.97739    1832.6925   -22371.242    -21034.05    279.97739   -514.89207    65985.977   0.99600549    701.09935 
   83000       880000   -20428.768    284.01421    1859.1169   -22287.885   -20825.904    284.01421   -411.78238    66129.633   0.99384183    709.95826 
   84000       890000   -20589.425    275.21377    1801.5105   -22390.936   -20746.622    275.21377   -165.24645    65228.344    1.0075742    722.81802 
   85000       900000   -20394.691    277.51483    1816.5729   -22211.264   -20342.263    277.51483    54.727656    65686.722    1.0005431    734.08072 
   86000       910000   -20469.539    279.08846    1826.8737   -22296.413   -21060.897    279.08846   -613.69872    66072.242   0.99470508    748.22547 
   87000       920000    -20490.81    275.33076    1802.2763   -22293.086   -20477.939    275.33076    13.466345    65539.007    1.0027981    762.62739 
   88000       930000    -20441.12    284.08705    1859.5937   -22300.714   -20375.351    284.08705    68.973703    65383.011    1.0051907    782.46425 
   89000       940000   -20488.337    278.02084    1819.8852   -22308.222   -20136.569    278.02084    369.35194    65303.963    1.0064075    791.37944 
   90000       950000   -20493.293    278.20293    1821.0771    -22314.37    -20452.31    278.20293    42.813954     65635.53    1.0013234    801.22195 
   91000       960000   -20340.608    287.12088    1879.4527   -22220.061   -20574.301    287.12088   -243.45072     65820.27     0.998513    810.58959 
   92000       970000    -20492.96    278.15991    1820.7955   -22313.756    -21233.05    278.15991   -768.55972    66028.459   0.99536467    823.46274 
   93000       980000   -20379.076    289.69601    1896.3092   -22275.385   -20554.584    289.69601    -182.9186    65790.654   0.99896248    832.82139 
   94000       990000   -20527.519    280.25077     1834.482   -22362.001   -20504.165    280.25077    24.586847    65128.804    1.0091141     842.1214 
   95000      1000000   -20461.296     283.6309    1856.6078   -22317.904   -20200.889     283.6309    273.20319    65356.885    1.0055925    851.05498 
   96000      1010000   -20387.738     278.7992    1824.9802   -22212.718   -20224.476     278.7992    170.69271     65583.56    1.0021169    860.27809 
   97000      1020000   -20466.251    278.32222     1821.858   -22288.109   -20579.276    278.32222     -117.993    65681.342     1.000625    869.11011 
   98000      1030000   -20553.305    272.87035    1786.1708   -22339.476   -20664.776    272.87035   -116.24502    65752.583    0.9995409    878.88895 
   99000      1040000   -20448.172     279.2503    1827.9331   -22276.105     -20970.2     279.2503   -544.09312    65787.652   0.99900807    888.33833 
  100000      1050000   -20605.913    266.18623    1742.4175    -22348.33   -20848.869    266.18623     -253.018    65841.776   0.99818685    897.64847 
Loop time of 897.649 on 2 procs for 100000 steps with 2197 atoms

Performance: 96.251 ns/day, 0.249 hours/ns, 111.402 timesteps/s
92.3% CPU use with 2 MPI tasks x no OpenMP threads

MPI task timing breakdown:
Section |  min time  |  avg time  |  max time  |%varavg| %total
---------------------------------------------------------------
Pair    | 755.47     | 757.5      | 759.53     |   7.4 | 84.39
Neigh   | 32.536     | 32.7       | 32.864     |   2.9 |  3.64
Comm    | 92.896     | 95.143     | 97.389     |  23.0 | 10.60
Output  | 0.26042    | 0.2652     | 0.26999    |   0.9 |  0.03
Modify  | 11.052     | 11.073     | 11.094     |   0.6 |  1.23
Other   |            | 0.9703     |            |       |  0.11

Nlocal:    1098.5 ave 1109 max 1088 min
Histogram: 1 0 0 0 0 0 0 0 0 1
Nghost:    1972 ave 1984 max 1960 min
Histogram: 1 0 0 0 0 0 0 0 0 1
Neighs:    0 ave 0 max 0 min
Histogram: 2 0 0 0 0 0 0 0 0 0
FullNghs:  36827 ave 37260 max 36394 min
Histogram: 1 0 0 0 0 0 0 0 0 1

Total # of neighbors = 73654
Ave neighs/atom = 33.5248
Neighbor list builds = 10000
Dangerous builds = 10000
Total wall time: 0:16:43
