LAMMPS (11 Aug 2017)
####################################################################################
# External variables that have to be passed on call
# Temperature 	= temperature of the system
# trjFile	= name of the .xtc trajectory file
# dataFile	= name of the .data input for Lammps
# nRand		= random number as seed for the velocity creation
# Timestep	= timestep in fs
# Eps		= LJ epsilon of mW C interaction
# Sigma		= LJ epsilon of mW C interaction
# nTimesteps	= number of timesteps to run
# nStride       = stride of thermo and trajectory output
# pass variables to the script via ${variable_name}
#####################################################################################

units real
dimension 3
newton on
processors * * *
boundary p p p
atom_style atomic
box tilt large
read_data liq.data
  orthogonal box = (-0.005 0.0045 0.008999) to (45.195 45.2045 45.209)
  1 by 1 by 2 MPI processor grid
  reading atoms ...
  3000 atoms


###################### MASS ######################

mass 1 18.015


###################### GROUPS ######################

group mW type 1
3000 atoms in group mW


###################### INTERACTIONS ######################

pair_style sw  # stilinger-weber potl
pair_coeff * * mW-mW.sw mW


###################### INTERACTIONS ######################

neighbor 2.0 bin
timestep ${Timestep}
timestep 10
min_style cg
run_style verlet


###################### COMPUTES ######################

compute mWtemp mW temp
thermo $(v_psStride*1000/v_Timestep)
thermo 1000
thermo_style custom step time etotal c_mWtemp ke pe enthalpy temp press vol density cpu
thermo_modify flush yes


###################### FIX ######################

#fix wallz mW wall/lj93 zlo 0.001 0.5 2 5
#fix_modify wallz energy yes


###################### RUNNING ######################

dump d1 all xtc $(v_psStride*1000/v_Timestep) ${trjFile}
dump d1 all xtc 1000 ${trjFile}
dump d1 all xtc 1000 293-253/trj.xtc


###################### MINIMIZATION ######################

minimize 1e-13 1e-15 5000 50000
WARNING: Using 'neigh_modify every 1 delay 0 check yes' setting during minimization (../min.cpp:168)
Neighbor list info ...
  update every 1 steps, delay 0 steps, check yes
  max neighbors/atom: 2000, page size: 100000
  master list distance cutoff = 6.09869
  ghost atom cutoff = 6.09869
  binsize = 3.04935, bins = 15 15 15
  1 neighbor lists, perpetual/occasional/extra = 1 0 0
  (1) pair sw, perpetual
      attributes: full, newton on
      pair build: full/bin/atomonly
      stencil: full/bin/3d
      bin: standard
Per MPI rank memory allocation (min/avg/max) = 4.117 | 4.118 | 4.119 Mbytes
Step Time TotEng c_mWtemp KinEng PotEng Enthalpy Temp Press Volume Density CPU 
       0            0    1081442.9            0            0    1081442.9    2680077.2            0    1187019.7    92345.414   0.97182764            0 
     593         5930   -33651.026            0            0   -33651.026    -35278.87            0   -1208.7086    92345.414   0.97182764     4.939215 
Loop time of 4.93932 on 2 procs for 593 steps with 3000 atoms

91.1% CPU use with 2 MPI tasks x no OpenMP threads

Minimization stats:
  Stopping criterion = linesearch alpha is zero
  Energy initial, next-to-last, final = 
         1081442.87387     -33651.0257623     -33651.0257623
  Force two-norm initial, final = 5.79938e+06 0.0752938
  Force max component initial, final = 2.35806e+06 0.0170692
  Final line search alpha, max atom move = 1.90735e-06 3.25569e-08
  Iterations, force evaluations = 593 920

MPI task timing breakdown:
Section |  min time  |  avg time  |  max time  |%varavg| %total
---------------------------------------------------------------
Pair    | 4.2267     | 4.4362     | 4.6457     |   9.9 | 89.81
Neigh   | 0.088645   | 0.091221   | 0.093797   |   0.9 |  1.85
Comm    | 0.13988    | 0.35174    | 0.5636     |  35.7 |  7.12
Output  | 0          | 0          | 0          |   0.0 |  0.00
Modify  | 0          | 0          | 0          |   0.0 |  0.00
Other   |            | 0.06018    |            |       |  1.22

Nlocal:    1500 ave 1518 max 1482 min
Histogram: 1 0 0 0 0 0 0 0 0 1
Nghost:    2238.5 ave 2251 max 2226 min
Histogram: 1 0 0 0 0 0 0 0 0 1
Neighs:    0 ave 0 max 0 min
Histogram: 2 0 0 0 0 0 0 0 0 0
FullNghs:  43339 ave 44415 max 42263 min
Histogram: 1 0 0 0 0 0 0 0 0 1

Total # of neighbors = 86678
Ave neighs/atom = 28.8927
Neighbor list builds = 31
Dangerous builds = 0


###################### VELOCITIES ######################

velocity mW create ${T0} ${nRand} dist gaussian mom yes rot yes
velocity mW create 293 ${nRand} dist gaussian mom yes rot yes
velocity mW create 293 5683 dist gaussian mom yes rot yes


###################### EQUILIBRATION ######################

timestep $(v_Timestep/2)
timestep 5
fix f1 mW nvt temp ${T0} ${T0} $(100*v_Timestep/2) tchain 10
fix f1 mW nvt temp 293 ${T0} $(100*v_Timestep/2) tchain 10
fix f1 mW nvt temp 293 293 $(100*v_Timestep/2) tchain 10
fix f1 mW nvt temp 293 293 500 tchain 10
fix_modify f1 temp mWtemp
WARNING: Temperature for fix modify is not for group all (../fix_nh.cpp:1395)
run $(500*1000/v_Timestep/2)
run 25000
Per MPI rank memory allocation (min/avg/max) = 2.994 | 2.994 | 2.995 Mbytes
Step Time TotEng c_mWtemp KinEng PotEng Enthalpy Temp Press Volume Density CPU 
     593            0   -31031.767          293    2619.2587   -33651.026   -30913.439          293    87.861216    92345.414   0.97182764            0 
    1000         2035   -30233.776    192.39567    1719.9114   -31953.687   -31369.879    192.39567   -843.58064    92345.414   0.97182764     2.083714 
    2000         7035   -28373.119    270.22791    2415.6887   -30788.808   -30056.527    270.22791    -1249.966    92345.414   0.97182764     7.096927 
    3000        12035   -27470.283    301.16686    2692.2659   -30162.549   -29402.605    301.16686   -1434.7892    92345.414   0.97182764    12.076751 
    4000        17035    -27712.37    281.96303    2520.5942   -30232.964   -29201.115    281.96303   -1105.4243    92345.414   0.97182764     17.35053 
    5000        22035   -27519.791     298.2386    2666.0889    -30185.88   -28712.016     298.2386   -885.25175    92345.414   0.97182764    22.919177 
    6000        27035   -27638.834     289.2831    2586.0317   -30224.865   -28996.531     289.2831   -1008.1192    92345.414   0.97182764    28.236031 
    7000        32035   -27568.205    294.05717    2628.7091   -30196.914   -29432.054    294.05717   -1383.9467    92345.414   0.97182764    33.404254 
    8000        37035   -27529.693    293.09399    2620.0989   -30149.792   -29001.744    293.09399   -1093.0288    92345.414   0.97182764    38.280245 
    9000        42035   -27372.912    295.78164     2644.125   -30017.037   -29229.929    295.78164   -1378.8744    92345.414   0.97182764    43.052143 
   10000        47035    -27620.06     286.7292    2563.2012   -30183.261   -29322.645     286.7292   -1264.2049    92345.414   0.97182764    47.835635 
   11000        52035    -27693.35    290.72454    2598.9173   -30292.267   -29200.093    290.72454   -1118.7882    92345.414   0.97182764     52.61267 
   12000        57035   -27563.498     297.8992    2663.0548   -30226.553   -29700.212     297.8992   -1586.5551    92345.414   0.97182764     57.49789 
   13000        62035   -27611.603    286.16352    2558.1443   -30169.747   -29404.818    286.16352   -1331.4999    92345.414   0.97182764    62.246678 
   14000        67035   -27533.985    300.16525    2683.3121   -30217.297   -29241.037    300.16525   -1267.5224    92345.414   0.97182764     67.02327 
   15000        72035   -27616.497     291.4893    2605.7538   -30222.251    -29327.16     291.4893   -1270.2032    92345.414   0.97182764    71.867433 
   16000        77035   -27518.136    303.29496    2711.2899   -30229.426   -28258.439    303.29496   -549.69043    92345.414   0.97182764    76.561675 
   17000        82035   -27625.107    292.50831    2614.8632    -30239.97   -29100.747    292.50831   -1095.6938    92345.414   0.97182764    81.233388 
   18000        87035   -27569.599     292.3307    2613.2755   -30182.875   -29676.668     292.3307   -1564.5425    92345.414   0.97182764    85.913174 
   19000        92035   -27595.439    289.54263    2588.3516   -30183.791   -29095.365    289.54263    -1113.727    92345.414   0.97182764    90.563463 
   20000        97035   -27574.431      290.145    2593.7365   -30168.167   -29050.141      290.145   -1095.7457    92345.414   0.97182764     95.24792 
   21000       102035   -27509.572    293.74585    2625.9262   -30135.499   -29246.668    293.74585   -1289.8298    92345.414   0.97182764      99.9104 
   22000       107035   -27601.767    285.97772    2556.4833   -30158.251   -28832.607    285.97772   -913.92453    92345.414   0.97182764    104.64754 
   23000       112035   -27594.428    296.23102    2648.1422    -30242.57   -29327.896    296.23102   -1287.1369    92345.414   0.97182764    109.26114 
   24000       117035   -27574.284     293.7338    2625.8184   -30200.102   -29508.778     293.7338   -1436.4027    92345.414   0.97182764    113.87756 
   25000       122035   -27712.843    277.00557    2476.2772    -30189.12   -29386.441    277.00557   -1242.6821    92345.414   0.97182764    118.59916 
   25593       125000   -27386.379    307.70043    2750.6724   -30137.052   -29338.585    307.70043   -1449.5541    92345.414   0.97182764    121.33331 
Loop time of 121.333 on 2 procs for 25000 steps with 3000 atoms

Performance: 89.011 ns/day, 0.270 hours/ns, 206.044 timesteps/s
98.2% CPU use with 2 MPI tasks x no OpenMP threads

MPI task timing breakdown:
Section |  min time  |  avg time  |  max time  |%varavg| %total
---------------------------------------------------------------
Pair    | 111.85     | 112.25     | 112.65     |   3.8 | 92.51
Neigh   | 4.5882     | 4.5996     | 4.611      |   0.5 |  3.79
Comm    | 3.0497     | 3.4382     | 3.8268     |  21.0 |  2.83
Output  | 0.012896   | 0.01329    | 0.013684   |   0.3 |  0.01
Modify  | 0.84704    | 0.8493     | 0.85156    |   0.2 |  0.70
Other   |            | 0.1815     |            |       |  0.15

Nlocal:    1500 ave 1503 max 1497 min
Histogram: 1 0 0 0 0 0 0 0 0 1
Nghost:    2228 ave 2237 max 2219 min
Histogram: 1 0 0 0 0 0 0 0 0 1
Neighs:    0 ave 0 max 0 min
Histogram: 2 0 0 0 0 0 0 0 0 0
FullNghs:  44227 ave 44259 max 44195 min
Histogram: 1 0 0 0 0 0 0 0 0 1

Total # of neighbors = 88454
Ave neighs/atom = 29.4847
Neighbor list builds = 1768
Dangerous builds = 3


###################### RUN ######################

unfix f1
fix f2 mW nvt temp ${T0} ${T1} $(100*v_Timestep) tchain 10
fix f2 mW nvt temp 293 ${T1} $(100*v_Timestep) tchain 10
fix f2 mW nvt temp 293 253 $(100*v_Timestep) tchain 10
fix f2 mW nvt temp 293 253 1000 tchain 10
fix_modify f2 temp mWtemp
WARNING: Temperature for fix modify is not for group all (../fix_nh.cpp:1395)

reset_timestep 0
run 0
Per MPI rank memory allocation (min/avg/max) = 3.001 | 3.001 | 3.001 Mbytes
Step Time TotEng c_mWtemp KinEng PotEng Enthalpy Temp Press Volume Density CPU 
       0       125000   -27386.379    307.70043    2750.6724   -30137.052   -29338.585    307.70043   -1449.5541    92345.414   0.97182764            0 
Loop time of 2.5e-06 on 2 procs for 0 steps with 3000 atoms

100.0% CPU use with 2 MPI tasks x no OpenMP threads

MPI task timing breakdown:
Section |  min time  |  avg time  |  max time  |%varavg| %total
---------------------------------------------------------------
Pair    | 0          | 0          | 0          |   0.0 |  0.00
Neigh   | 0          | 0          | 0          |   0.0 |  0.00
Comm    | 0          | 0          | 0          |   0.0 |  0.00
Output  | 0          | 0          | 0          |   0.0 |  0.00
Modify  | 0          | 0          | 0          |   0.0 |  0.00
Other   |            | 2.5e-06    |            |       |100.00

Nlocal:    1500 ave 1503 max 1497 min
Histogram: 1 0 0 0 0 0 0 0 0 1
Nghost:    2228 ave 2237 max 2219 min
Histogram: 1 0 0 0 0 0 0 0 0 1
Neighs:    0 ave 0 max 0 min
Histogram: 2 0 0 0 0 0 0 0 0 0
FullNghs:  44227 ave 44259 max 44195 min
Histogram: 1 0 0 0 0 0 0 0 0 1

Total # of neighbors = 88454
Ave neighs/atom = 29.4847
Neighbor list builds = 0
Dangerous builds = 0

timestep ${Timestep}
timestep 10
run $(v_nsRunTime*1000000/v_Timestep)
run 2000000
Per MPI rank memory allocation (min/avg/max) = 3.001 | 3.001 | 3.001 Mbytes
Step Time TotEng c_mWtemp KinEng PotEng Enthalpy Temp Press Volume Density CPU 
       0       125000   -27386.379    307.70043    2750.6724   -30137.052   -29338.585    307.70043   -1449.5541    92345.414   0.97182764            0 
    1000       135000   -27571.039     292.8649    2618.0509    -30189.09   -28526.145     292.8649   -709.18636    92345.414   0.97182764     4.782753 
    2000       145000   -27467.214    298.38467    2667.3946   -30134.609   -28918.571    298.38467   -1077.6628    92345.414   0.97182764     9.515636 
    3000       155000    -27587.13    277.80919    2483.4612   -30070.591   -28942.913    277.80919   -1006.6978    92345.414   0.97182764    14.278144 
    4000       165000   -27549.144     290.2838    2594.9773   -30144.122    -28808.03     290.2838   -934.74893    92345.414   0.97182764    19.123035 
    5000       175000   -27492.153    291.77151    2608.2767    -30100.43   -29449.173    291.77151   -1453.1285    92345.414   0.97182764    24.014264 
    6000       185000   -27492.019    291.64552    2607.1503    -30099.17    -29036.76    291.64552   -1147.0027    92345.414   0.97182764    28.889964 
    7000       195000   -27495.876    289.59456    2588.8159   -30084.692   -29450.471    289.59456   -1451.3281    92345.414   0.97182764    33.681743 
    8000       205000   -27453.565    292.42855    2614.1502   -30067.716   -28939.554    292.42855   -1103.3779    92345.414   0.97182764    38.421171 
    9000       215000   -27595.129    291.20431    2603.2062   -30198.335   -29795.626    291.20431   -1633.9156    92345.414   0.97182764    43.106626 
   10000       225000   -27590.631    287.88506    2573.5339   -30164.165   -29345.939    287.88506   -1303.3533    92345.414   0.97182764    47.806765 
   11000       235000   -27467.207    295.76012    2643.9326    -30111.14   -28529.263    295.76012   -788.59886    92345.414   0.97182764    52.512704 
   12000       245000   -27563.214    296.82945    2653.4918   -30216.705    -29635.83    296.82945   -1538.9611    92345.414   0.97182764    57.359866 
   13000       255000   -27525.157    291.93295    2609.7198   -30134.877   -29142.571    291.93295   -1200.9643    92345.414   0.97182764    62.087355 
   14000       265000   -27495.491     299.3985    2676.4577   -30171.949   -28979.371     299.3985   -1101.8117    92345.414   0.97182764    66.828582 
   15000       275000   -27627.238    286.81864    2564.0007   -30191.239   -29639.346    286.81864   -1494.0328    92345.414   0.97182764    71.510302 
   16000       285000   -27496.617    297.27763    2657.4983   -30154.116   -29140.914    297.27763   -1220.9247    92345.414   0.97182764    76.572657 
   17000       295000   -27647.637    285.74645    2554.4159   -30202.053   -29096.193    285.74645   -1075.5832    92345.414   0.97182764     81.36283 
   18000       305000     -27539.4    291.40967     2605.042   -30144.442   -29471.851    291.40967    -1434.886    92345.414   0.97182764    86.142883 
   19000       315000    -27686.07    289.44938    2587.5181   -30273.588   -29356.523    289.44938   -1240.3464    92345.414   0.97182764     90.90886 
   20000       325000   -27497.054    290.01066    2592.5356    -30089.59   -29234.109    290.01066   -1289.7999    92345.414   0.97182764    95.653132 
   21000       335000   -27591.011    291.22273    2603.3708   -30194.381   -29273.511    291.22273    -1249.292    92345.414   0.97182764    100.42539 
   22000       345000   -27533.366    292.89687    2618.3368   -30151.702   -29154.835    292.89687   -1203.9749    92345.414   0.97182764    105.14035 
   23000       355000    -27575.59    286.44308    2560.6434   -30136.234   -28982.704    286.44308   -1044.8112    92345.414   0.97182764    109.87495 
   24000       365000   -27418.586    293.82186    2626.6056   -30045.191   -28839.786    293.82186   -1055.2713    92345.414   0.97182764    114.67627 
   25000       375000   -27569.629    295.96378    2645.7532   -30215.382   -28886.867    295.96378   -978.07705    92345.414   0.97182764    119.58881 
   26000       385000   -27466.365    298.31929    2666.8102   -30133.175   -29424.535    298.31929   -1453.9824    92345.414   0.97182764    124.49232 
   27000       395000   -27602.741    287.09053    2566.4313   -30169.173   -29298.676    287.09053   -1259.2672    92345.414   0.97182764    129.23363 
   28000       405000   -27624.321    288.21646    2576.4965   -30200.817   -29289.125    288.21646   -1236.1522    92345.414   0.97182764    133.95687 
   29000       415000   -27537.078     293.4325    2623.1249   -30160.203   -28814.824     293.4325   -948.75299    92345.414   0.97182764    138.67069 
   30000       425000    -27545.45    292.01227    2610.4289   -30155.879   -29588.782    292.01227   -1517.2174    92345.414   0.97182764     143.3636 
   31000       435000   -27542.446    287.82689    2573.0139    -30115.46   -28437.277    287.82689   -664.43072    92345.414   0.97182764     148.0916 
   32000       445000   -27517.697    293.79617     2626.376   -30144.073   -29276.401    293.79617   -1305.8743    92345.414   0.97182764    152.82729 
   33000       455000   -27491.776    294.13791    2629.4309   -30121.207   -28644.224    294.13791   -855.71677    92345.414   0.97182764    157.64911 
   34000       465000   -27702.558    285.43088    2551.5949   -30254.153    -29257.54    285.43088   -1154.6071    92345.414   0.97182764      162.352 
   35000       475000   -27539.607    292.23911    2612.4567   -30152.063   -29852.866    292.23911    -1717.644    92345.414   0.97182764    167.03065 
   36000       485000   -27599.524    290.48124    2596.7423   -30196.266   -29020.904    290.48124   -1055.4047    92345.414   0.97182764    171.78383 
   37000       495000   -27567.638    289.59142    2588.7879   -30156.426   -29104.131    289.59142   -1140.8783    92345.414   0.97182764    176.59344 
   38000       505000   -27682.305    292.99205    2619.1875   -30301.493   -29208.396    292.99205   -1133.1548    92345.414   0.97182764    181.29348 
   39000       515000   -27585.868    291.42433    2605.1731   -30191.041    -28776.65    291.42433   -884.18055    92345.414   0.97182764    186.03775 
   40000       525000   -27528.386    295.35392    2640.3014   -30168.687   -28675.273    295.35392   -851.58771    92345.414   0.97182764    190.73944 
   41000       535000   -27550.448    292.21325    2612.2255   -30162.674   -28828.835    292.21325   -949.22931    92345.414   0.97182764    195.43972 
   42000       545000    -27499.35    297.90532    2663.1095   -30162.459   -29139.125    297.90532   -1217.5677    92345.414   0.97182764    200.16358 
   43000       555000    -27620.16    292.30122    2613.0119   -30233.172   -28992.613    292.30122   -1019.0756    92345.414   0.97182764    204.88586 
   44000       565000   -27447.962    295.07857    2637.8399   -30085.802   -28630.697    295.07857   -878.20563    92345.414   0.97182764    209.58315 
   45000       575000   -27560.009    294.43484    2632.0853   -30192.095   -29251.655    294.43484   -1256.0827    92345.414   0.97182764    214.31493 
   46000       585000   -27567.886    296.38537     2649.522   -30217.408    -29238.04    296.38537   -1240.1248    92345.414   0.97182764    219.03043 
   47000       595000   -27586.161    289.49752    2587.9484   -30174.109   -29461.586    289.49752   -1392.5425    92345.414   0.97182764    223.72004 
   48000       605000   -27602.117    282.06127    2521.4724    -30123.59   -29475.705    282.06127   -1391.1788    92345.414   0.97182764    228.42604 
   49000       615000   -27485.741     297.0431    2655.4018   -30141.143   -29198.625     297.0431    -1271.852    92345.414   0.97182764    233.11853 
   50000       625000   -27593.042    293.02465     2619.479   -30212.521   -29015.549    293.02465   -1056.2412    92345.414   0.97182764    237.93936 
   51000       635000   -27479.107    294.22947    2630.2494   -30109.356   -29513.893    294.22947    -1510.872    92345.414   0.97182764     242.6915 
   52000       645000   -27513.499    295.75026    2643.8445   -30157.343   -28964.451    295.75026   -1077.3625    92345.414   0.97182764    247.39349 
   53000       655000   -27632.943    292.38659    2613.7751   -30246.718   -29482.258    292.38659   -1373.1555    92345.414   0.97182764    252.06725 
   54000       665000   -27466.569    292.69106    2616.4969   -30083.066   -29230.179    292.69106   -1309.5172    92345.414   0.97182764    256.80164 
   55000       675000   -27610.745    298.56235     2668.983   -30279.728   -29432.568    298.56235   -1352.7421    92345.414   0.97182764    261.50701 
   56000       685000   -27470.248    294.71102    2634.5543   -30104.802   -29456.356    294.71102   -1474.7271    92345.414   0.97182764      266.243 
   57000       695000   -27512.778    298.28468    2666.5008   -30179.279   -29441.659    298.28468   -1432.2348    92345.414   0.97182764    270.93304 
   58000       705000    -27551.18     284.1104    2539.7906    -30090.97   -29178.347     284.1104   -1208.2065    92345.414   0.97182764    275.65379 
   59000       715000   -27518.311    293.89657    2627.2735   -30145.585   -28949.296    293.89657   -1062.5361    92345.414   0.97182764    280.35561 
   60000       725000   -27582.978     291.6569    2607.2521    -30190.23   -29709.409     291.6569     -1578.92    92345.414   0.97182764    285.06116 
   61000       735000   -27496.154    296.02434    2646.2946   -30142.449   -28641.531    296.02434   -850.46656    92345.414   0.97182764    289.81833 
   62000       745000    -27568.25    286.99517    2565.5787   -30133.829   -29290.971    286.99517   -1279.1564    92345.414   0.97182764    294.51261 
   63000       755000   -27497.169    295.26311    2639.4896   -30136.658   -28948.425    295.26311   -1077.5887    92345.414   0.97182764    299.32764 
   64000       765000   -27508.568    292.10342    2611.2437   -30119.811   -28995.222    292.10342   -1103.8723    92345.414   0.97182764    304.05693 
   65000       775000   -27614.997    288.72244    2581.0196   -30196.017   -29331.193    288.72244   -1274.3114    92345.414   0.97182764    308.81327 
   66000       785000   -27574.491     293.1891    2620.9491    -30195.44   -29174.087     293.1891   -1187.7339    92345.414   0.97182764    313.54908 
   67000       795000   -27400.718     302.0355    2700.0311   -30100.749   -29173.009     302.0355   -1315.9637    92345.414   0.97182764    318.27579 
   68000       805000   -27613.264    291.83703    2608.8623   -30222.126   -28929.972    291.83703   -977.68351    92345.414   0.97182764    322.97142 
   69000       815000   -27661.638    292.83418    2617.7763   -30279.415   -29336.073    292.83418   -1243.3031    92345.414   0.97182764    327.66224 
   70000       825000   -27518.528    287.18163    2567.2456   -30085.773   -28657.734    287.18163   -845.88495    92345.414   0.97182764     332.4361 
   71000       835000   -27568.464    294.19037    2629.8999   -30198.364   -29874.037    294.19037   -1711.9361    92345.414   0.97182764    337.14143 
   72000       845000    -27493.29    299.44344    2676.8594   -30170.149   -29371.752    299.44344   -1394.7978    92345.414   0.97182764    341.89505 
   73000       855000   -27601.385    293.32042     2622.123   -30223.508   -29414.477    293.32042   -1346.2592    92345.414   0.97182764    346.64307 
   74000       865000   -27633.501    287.83958    2573.1273   -30206.628   -29600.981    287.83958   -1460.8957    92345.414   0.97182764    351.35158 
   75000       875000   -27646.105    294.79276    2635.2849    -30281.39   -29326.137    294.79276   -1247.4587    92345.414   0.97182764    356.13886 
   76000       885000   -27550.724    294.16106    2629.6379   -30180.362    -29020.26    294.16106   -1091.1611    92345.414   0.97182764    360.81526 
   77000       895000   -27553.336    291.70996    2607.7264   -30161.062    -28799.36    291.70996   -925.19919    92345.414   0.97182764    365.52906 
   78000       905000   -27595.304    288.42566    2578.3666   -30173.671   -28957.812    288.42566   -1011.6905    92345.414   0.97182764    370.27455 
   79000       915000   -27481.946    297.32248    2657.8993   -30139.845   -28815.052    297.32248   -989.85894    92345.414   0.97182764    375.42009 
   80000       925000   -27505.294    292.11279    2611.3275   -30116.622   -29644.428    292.11279   -1588.3517    92345.414   0.97182764    380.25842 
   81000       935000   -27659.873    294.23699    2630.3167    -30290.19   -29678.709    294.23699   -1499.0278    92345.414   0.97182764    385.12945 
   82000       945000    -27551.85     298.1465    2665.2655   -30217.115   -29079.469     298.1465   -1134.2897    92345.414   0.97182764     389.8107 
   83000       955000   -27548.066    302.54302     2704.568   -30252.634   -29899.305    302.54302   -1745.8443    92345.414   0.97182764      394.603 
   84000       965000   -27640.846    281.84609    2519.5489   -30160.395   -29052.752    281.84609   -1048.3699    92345.414   0.97182764    399.30667 
   85000       975000   -27541.564     287.2421    2567.7862   -30109.351   -29411.093     287.2421   -1388.1645    92345.414   0.97182764    403.98882 
   86000       985000   -27551.814    292.57377    2615.4484   -30167.262   -29309.636    292.57377   -1305.2196    92345.414   0.97182764    408.68956 
   87000       995000   -27519.191     292.7641    2617.1498    -30136.34   -28824.888     292.7641     -969.508    92345.414   0.97182764    413.38725 
   88000      1005000   -27511.968    290.65583    2598.3031   -30110.271   -29775.913    290.65583   -1681.0266    92345.414   0.97182764    418.25268 
   89000      1015000   -27526.429    298.99032    2672.8088   -30199.238   -29195.962    298.99032   -1239.6631    92345.414   0.97182764    422.98522 
   90000      1025000   -27485.831     300.2468     2684.041   -30169.872   -28681.037     300.2468   -887.46576    92345.414   0.97182764    427.69799 
   91000      1035000   -27702.203    285.83127    2555.1741   -30257.377   -29390.236    285.83127   -1253.4006    92345.414   0.97182764     432.4005 
   92000      1045000   -27462.667    299.51496    2677.4988   -30140.166   -28806.268    299.51496   -997.65149    92345.414   0.97182764     437.2933 
   93000      1055000   -27582.941    292.73187    2616.8617   -30199.803   -29329.439    292.73187   -1296.8117    92345.414   0.97182764    442.06938 
   94000      1065000     -27641.6    287.32782    2568.5525   -30210.152   -29420.706    287.32782   -1321.0241    92345.414   0.97182764    446.80567 
   95000      1075000   -27430.286    296.42489    2649.8753   -30080.161   -29131.073    296.42489   -1262.8705    92345.414   0.97182764    451.50896 
   96000      1085000   -27625.644    288.36377    2577.8133   -30203.457   -29168.002    288.36377   -1145.2333    92345.414   0.97182764    456.36061 
   97000      1095000   -27536.868    294.02519    2628.4233   -30165.291   -29420.237    294.02519   -1398.4412    92345.414   0.97182764    461.09216 
   98000      1105000   -27604.385    291.99913    2610.3114   -30214.697   -28564.808    291.99913   -713.13388    92345.414   0.97182764    465.75845 
   99000      1115000   -27619.501    290.31388    2595.2463   -30214.748   -29170.516    290.31388   -1151.6612    92345.414   0.97182764    470.44745 
  100000      1125000   -27508.432    299.01524    2673.0316   -30181.463    -29119.72    299.01524   -1196.4153    92345.414   0.97182764    475.30782 
  101000      1135000   -27567.625    296.95594    2654.6226   -30222.247   -29413.203    296.95594   -1370.3808    92345.414   0.97182764    480.02464 
  102000      1145000   -27619.481    287.06754    2566.2257   -30185.707   -29277.014    287.06754    -1230.753    92345.414   0.97182764    484.74726 
  103000      1155000    -27507.09    299.69901    2679.1441   -30186.234   -29144.331    299.69901   -1215.6859    92345.414   0.97182764    489.43716 
  104000      1165000   -27626.848     286.4889     2561.053   -30187.901   -29108.105     286.4889   -1099.8645    92345.414   0.97182764    494.12279 
  105000      1175000   -27622.814     284.5334    2543.5719   -30166.386   -28498.551     284.5334   -650.25309    92345.414   0.97182764    498.82966 
  106000      1185000   -27638.797    285.01441    2547.8719   -30186.669   -28977.207    285.01441   -993.79792    92345.414   0.97182764     503.5147 
  107000      1195000   -27645.135    295.90301      2645.21   -30290.345   -29343.233    295.90301   -1260.8733    92345.414   0.97182764    508.24949 
  108000      1205000   -27506.093    298.00844    2664.0313   -30170.125   -29284.657    298.00844   -1320.6209    92345.414   0.97182764     512.9476 
  109000      1215000   -27664.957    293.60401    2624.6582   -30289.615   -29254.724    293.60401    -1180.436    92345.414   0.97182764     517.6477 
  110000      1225000   -27588.563    283.89985    2537.9083   -30126.471   -28986.296    283.89985   -1037.8469    92345.414   0.97182764    522.34661 
  111000      1235000   -27669.166    289.20626    2585.3447   -30254.511   -29391.802    289.20626   -1279.0933    92345.414   0.97182764    527.03039 
  112000      1245000   -27477.044    289.76046    2590.2989   -30067.343    -28746.62    289.76046   -942.68725    92345.414   0.97182764    531.74161 
  113000      1255000   -27577.358    296.09689    2646.9431   -30224.301   -28930.624    296.09689   -1004.8284    92345.414   0.97182764    536.58262 
  114000      1265000   -27574.825    291.29375    2604.0058   -30178.831   -29008.044    291.29375   -1064.1955    92345.414   0.97182764    541.27458 
  115000      1275000   -27523.259    290.58639    2597.6823   -30120.941   -29258.842    290.58639    -1288.707    92345.414   0.97182764     546.0608 
  116000      1285000   -27650.477    284.42018    2542.5598   -30193.037   -29215.703    284.42018   -1162.2135    92345.414   0.97182764    550.79115 
  117000      1295000   -27598.517    283.42999     2533.708   -30132.225   -29066.405    283.42999   -1089.9378    92345.414   0.97182764    555.48651 
  118000      1305000   -27565.294    295.77707    2644.0841   -30209.378   -29092.284    295.77707   -1133.8226    92345.414   0.97182764    560.19851 
  119000      1315000   -27454.369    299.18481    2674.5475   -30128.916   -29067.204    299.18481   -1197.5641    92345.414   0.97182764    564.94581 
  120000      1325000   -27644.817    288.50649    2579.0892   -30223.906     -29264.2    288.50649   -1202.4261    92345.414   0.97182764    569.64624 
  121000      1335000    -27524.38    291.91602    2609.5684   -30133.948   -29338.035    291.91602    -1346.677    92345.414   0.97182764    574.39633 
  122000      1345000   -27687.012    288.47851     2578.839   -30265.851   -28915.845    288.47851   -912.43491    92345.414   0.97182764    579.07926 
  123000      1355000   -27603.785    291.33479    2604.3726   -30208.157   -28730.726    291.33479   -836.77735    92345.414   0.97182764     583.7667 
  124000      1365000   -27534.186    296.79675    2653.1995   -30187.386   -28786.014    296.79675   -929.50828    92345.414   0.97182764    588.54804 
  125000      1375000   -27566.415    292.50948    2614.8737   -30181.288   -28908.314    292.50948   -996.38838    92345.414   0.97182764    593.23913 
  126000      1385000   -27599.577     290.6466    2598.2206   -30197.797   -29108.477     290.6466   -1120.3907    92345.414   0.97182764    598.14038 
  127000      1395000   -27603.832    291.44805    2605.3851   -30209.217    -28935.69    291.44805   -988.93248    92345.414   0.97182764    602.86213 
  128000      1405000   -27725.138    293.84582    2626.8199   -30351.958   -29928.801    293.84582   -1636.2664    92345.414   0.97182764    607.55473 
  129000      1415000   -27514.283    293.02711     2619.501   -30133.784   -29129.086    293.02711   -1199.0251    92345.414   0.97182764    612.23232 
  130000      1425000   -27602.191    290.02768    2592.6878   -30194.879   -29262.127    290.02768   -1232.5374    92345.414   0.97182764    616.98557 
  131000      1435000   -27570.539    293.55897    2624.2556   -30194.795   -29327.705    293.55897   -1304.7327    92345.414   0.97182764    621.68034 
  132000      1445000   -27523.033    289.13855    2584.7394   -30107.772   -28799.865    289.13855   -948.07514    92345.414   0.97182764     626.3654 
  133000      1455000   -27564.268    295.63752    2642.8366   -30207.104   -29442.352    295.63752    -1394.517    92345.414   0.97182764    631.05095 
  134000      1465000   -27610.208    287.78265    2572.6184   -30182.826    -29005.83    287.78265   -1036.2791    92345.414   0.97182764    635.90288 
  135000      1475000   -27640.345    287.68303    2571.7279   -30212.073   -29366.393    287.68303   -1281.6265    92345.414   0.97182764    640.62248 
  136000      1485000   -27503.037    296.61839     2651.605   -30154.642   -29052.681    296.61839    -1150.643    92345.414   0.97182764    645.33066 
  137000      1495000   -27579.495    291.90939    2609.5092   -30189.004   -29179.012    291.90939    -1187.675    92345.414   0.97182764    650.01785 
  138000      1505000   -27674.789    293.04744    2619.6828   -30294.472   -29676.399    293.04744   -1486.2374    92345.414   0.97182764    654.81163 
  139000      1515000   -27597.129    286.63152    2562.3279   -30159.457   -29005.574    286.63152   -1045.8002    92345.414   0.97182764    659.54392 
  140000      1525000   -27660.032    289.99043    2592.3547   -30252.387   -29008.286    289.99043   -1001.1074    92345.414   0.97182764    664.26117 
  141000      1535000   -27579.281    287.40322    2569.2266   -30148.508   -29591.709    287.40322   -1494.2696    92345.414   0.97182764    668.94724 
  142000      1545000   -27475.281    297.57548     2660.161   -30135.442   -29174.232    297.57548   -1261.5064    92345.414   0.97182764    673.80311 
  143000      1555000   -27683.608    291.89113    2609.3459   -30292.954    -29490.87    291.89113     -1341.93    92345.414   0.97182764    678.53139 
  144000      1565000   -27539.764    296.13327    2647.2684   -30187.032   -29170.418    296.13327   -1210.7953    92345.414   0.97182764    683.25573 
  145000      1575000   -27630.494    288.16406     2576.028   -30206.522   -29546.239    288.16406   -1422.4805    92345.414   0.97182764     687.9692 
  146000      1585000   -27673.933    283.30487    2532.5895   -30206.523   -28754.801    283.30487    -802.5673    92345.414   0.97182764    692.72247 
  147000      1595000   -27571.828    288.06125    2575.1089   -30146.937   -29147.495    288.06125   -1169.9656    92345.414   0.97182764    697.40818 
  148000      1605000   -27545.389    297.24529    2657.2092   -30202.598   -28727.027    297.24529   -877.39127    92345.414   0.97182764    702.16348 
  149000      1615000   -27646.126    283.40357    2533.4719   -30179.598   -29436.671    283.40357   -1329.5173    92345.414   0.97182764    706.87516 
  150000      1625000   -27625.861    289.35571    2586.6807   -30212.542   -29585.205    289.35571    -1454.854    92345.414   0.97182764    711.57616 
  151000      1635000   -27548.019    292.95297    2618.8382   -30166.857   -28651.718    292.95297   -819.51971    92345.414   0.97182764    716.42422 
  152000      1645000   -27642.956    292.83211    2617.7578   -30260.714    -29570.96    292.83211   -1431.5833    92345.414   0.97182764    721.09065 
  153000      1655000   -27514.755    296.53894    2650.8949    -30165.65   -28921.451    296.53894   -1044.5016    92345.414   0.97182764    725.85912 
  154000      1665000   -27592.913    287.81103    2572.8721   -30165.786   -28947.251    287.81103   -1005.6239    92345.414   0.97182764    730.57778 
  155000      1675000   -27521.316    293.96952    2627.9256   -30149.242   -28753.376    293.96952   -914.83048    92345.414   0.97182764     735.2942 
  156000      1685000   -27649.887    282.81122    2528.1766   -30178.063   -29852.902    282.81122    -1635.785    92345.414   0.97182764     740.1609 
  157000      1695000   -27641.858    282.77091    2527.8162   -30169.674   -28874.975    282.77091   -915.61555    92345.414   0.97182764    744.92592 
  158000      1705000   -27622.177    289.94785    2591.9741   -30214.151   -29809.377    289.94785   -1624.0421    92345.414   0.97182764    749.89852 
  159000      1715000   -27526.106    283.65294    2535.7011   -30061.808    -29059.35    283.65294   -1138.4653    92345.414   0.97182764    754.63262 
  160000      1725000    -27620.58    289.20479    2585.3316   -30205.912   -29456.211    289.20479   -1362.9946    92345.414   0.97182764    759.34408 
  161000      1735000   -27643.759    290.40255    2596.0389   -30239.798   -29378.102    290.40255   -1287.7865    92345.414   0.97182764    764.04539 
  162000      1745000   -27534.475     291.8758    2609.2089   -30143.684   -29602.336     291.8758   -1535.4301    92345.414   0.97182764    768.74065 
  163000      1755000   -27624.636    292.96053    2618.9058   -30243.542    -29313.71    292.96053    -1254.173    92345.414   0.97182764    773.44885 
  164000      1765000   -27598.873    291.93003    2609.6937   -30208.567   -29314.391    291.93003   -1273.8082    92345.414   0.97182764    778.23956 
  165000      1775000   -27557.797    285.27866    2550.2342   -30108.032   -29021.875    285.27866   -1087.1088    92345.414   0.97182764    782.95734 
  166000      1785000   -27664.034    285.96715    2556.3889   -30220.423   -29290.325    285.96715   -1207.5552    92345.414   0.97182764    787.71182 
  167000      1795000   -27515.969    295.33151    2640.1011    -30156.07   -28746.711    295.33151   -913.85177    92345.414   0.97182764    792.41835 
  168000      1805000   -27621.668    288.46777     2578.743   -30200.411   -28699.993    288.46777   -800.67961    92345.414   0.97182764    797.32652 
  169000      1815000   -27596.809    293.61764      2624.78   -30221.589   -28823.874    293.61764   -911.12127    92345.414   0.97182764    802.09468 
  170000      1825000   -27634.946    288.67223    2580.5707   -30215.517   -28955.038    288.67223    -980.1959    92345.414   0.97182764     806.7768 
  171000      1835000   -27547.077    295.67781    2643.1968   -30190.273   -29250.795    295.67781    -1265.047    92345.414   0.97182764    811.45784 
  172000      1845000   -27595.225    285.56248    2552.7714   -30147.996   -29246.106    285.56248   -1225.8143    92345.414   0.97182764    816.15424 
  173000      1855000   -27650.762    286.89957    2564.7242   -30215.486   -29523.208    286.89957   -1390.3307    92345.414   0.97182764    820.85944 
  174000      1865000   -27624.267    295.99103    2645.9969   -30270.264   -28695.192    295.99103   -795.18486    92345.414   0.97182764     825.6004 
  175000      1875000   -27637.457    285.02955    2548.0072   -30185.464   -29024.859    285.02955   -1030.1753    92345.414   0.97182764    830.28246 
  176000      1885000   -27688.579    282.95083    2529.4246   -30218.003    -29162.02    282.95083   -1094.0607    92345.414   0.97182764     835.0793 
  177000      1895000       -27622    290.28213    2594.9624   -30216.963   -29245.099    290.28213   -1205.1848    92345.414   0.97182764    839.78052 
  178000      1905000   -27563.119    288.90033    2582.6099   -30145.729   -29209.959    288.90033   -1222.8138    92345.414   0.97182764    844.54813 
  179000      1915000   -27545.866    288.41647    2578.2844   -30124.151   -28834.643    288.41647   -956.94416    92345.414   0.97182764    849.29346 
  180000      1925000   -27742.277    281.90505    2520.0759   -30262.353   -29176.013    281.90505   -1064.5792    92345.414   0.97182764    853.99027 
  181000      1935000   -27612.069    287.04396    2566.0149   -30178.084   -28511.299    287.04396   -667.69681    92345.414   0.97182764    858.67126 
  182000      1945000    -27591.25    298.19296    2665.6808   -30256.931   -28760.336    298.19296   -868.07064    92345.414   0.97182764    863.39866 
  183000      1955000   -27738.775    285.53232    2552.5017   -30291.276    -29433.11    285.53232   -1258.0799    92345.414   0.97182764    868.11657 
  184000      1965000   -27721.232    281.31639    2514.8137   -30236.045   -29553.482    281.31639   -1360.4842    92345.414   0.97182764    872.81223 
  185000      1975000   -27577.373    292.79238    2617.4026   -30194.776   -29637.496    292.79238   -1529.6844    92345.414   0.97182764    877.51663 
  186000      1985000   -27628.998     290.5707    2597.5421   -30226.541   -29377.502     290.5707   -1298.3003    92345.414   0.97182764    882.20938 
  187000      1995000   -27657.177     290.0345    2592.7487   -30249.926    -29527.39     290.0345   -1388.6726    92345.414   0.97182764    886.94464 
  188000      2005000   -27558.124    296.31768    2648.9169   -30207.041   -29195.633    296.31768   -1215.8849    92345.414   0.97182764    891.67149 
  189000      2015000   -27636.042    285.26582    2550.1194   -30186.161   -29277.558    285.26582   -1218.8606    92345.414   0.97182764    896.48375 
  190000      2025000    -27745.04    284.22808    2540.8425   -30285.883   -29801.726    284.22808   -1527.1322    92345.414   0.97182764    901.14634 
  191000      2035000   -27627.441    291.20749    2603.2346   -30230.676   -29413.404    291.20749   -1326.1152    92345.414   0.97182764    905.86101 
  192000      2045000   -27583.195    289.34901    2586.6208   -30169.816   -29726.364    289.34901   -1591.3482    92345.414   0.97182764    910.64844 
  193000      2055000   -27622.465    285.61962    2553.2821   -30175.747   -29790.548    285.61962   -1609.8471    92345.414   0.97182764    916.54382 
  194000      2065000   -27607.605    288.62824    2580.1776   -30187.783   -29252.953    288.62824   -1221.7056    92345.414   0.97182764    922.78125 
  195000      2075000   -27684.405    280.20431    2504.8722   -30189.277   -29096.048    280.20431   -1048.1742    92345.414   0.97182764    928.36314 
  196000      2085000   -27545.607     290.4859     2596.784   -30142.391   -28689.316     290.4859   -849.22838    92345.414   0.97182764    934.00619 
  197000      2095000   -27655.922     289.7198    2589.9355   -30245.857   -29321.669     289.7198   -1236.8519    92345.414   0.97182764    939.09447 
  198000      2105000   -27672.897    290.63426    2598.1102   -30271.007   -29748.176    290.63426   -1540.9381    92345.414   0.97182764    944.73977 
  199000      2115000   -27583.711    289.67796    2589.5614   -30173.273   -29536.288    289.67796   -1449.8293    92345.414   0.97182764    949.62185 
  200000      2125000   -27585.409    291.87637    2609.2141   -30194.623   -29717.148    291.87637   -1582.8616    92345.414   0.97182764    954.70752 
  201000      2135000   -27783.924    289.36006    2586.7196   -30370.643   -29529.266    289.36006   -1295.9534    92345.414   0.97182764    960.37709 
  202000      2145000   -27665.717    286.63931    2562.3976   -30228.114   -28905.097    286.63931    -920.2657    92345.414   0.97182764    966.82633 
  203000      2155000   -27733.712    282.16129    2522.3666   -30256.079   -29589.742    282.16129   -1378.1411    92345.414   0.97182764    972.40007 
  204000      2165000   -27568.903    291.61443    2606.8724   -30175.775   -29165.446    291.61443   -1185.4674    92345.414   0.97182764    978.44068 
  205000      2175000   -27734.083    291.17997    2602.9886   -30337.072   -29418.959    291.17997    -1251.056    92345.414   0.97182764    983.30882 
  206000      2185000   -27757.563    277.34138    2479.2792   -30236.842   -29591.664    277.34138   -1361.8588    92345.414   0.97182764     988.1852 
  207000      2195000   -27572.133    287.88351    2573.5201   -30145.654   -28542.491    287.88351   -720.51078    92345.414   0.97182764    993.18415 
  208000      2205000   -27703.238    283.47226    2534.0859   -30237.324   -29416.488    283.47226   -1272.1241    92345.414   0.97182764    998.06646 
  209000      2215000   -27657.392    295.40627    2640.7693   -30298.161    -29814.74    295.40627   -1601.8765    92345.414   0.97182764    1002.9261 
  210000      2225000   -27587.079    291.75451    2608.1247   -30195.203    -29526.37    291.75451   -1439.9644    92345.414   0.97182764    1007.8097 
  211000      2235000   -27682.917       288.46    2578.6736    -30261.59   -29547.879       288.46   -1384.7735    92345.414   0.97182764    1012.6632 
  212000      2245000   -27651.283    290.89516    2600.4426   -30251.725   -29057.531    290.89516    -1044.169    92345.414   0.97182764    1017.7141 
  213000      2255000   -27693.402    288.94084     2582.972   -30276.374   -29085.391    288.94084   -1033.5809    92345.414   0.97182764    1022.6217 
  214000      2265000   -27595.113    288.14229    2575.8334   -30170.946   -28769.904    288.14229   -872.30728    92345.414   0.97182764    1027.5114 
  215000      2275000   -27624.988    292.16729    2611.8147   -30236.803   -28718.092    292.16729   -811.65292    92345.414   0.97182764    1032.4057 
  216000      2285000   -27589.405    289.46661    2587.6721   -30177.077    -29210.66    289.46661   -1203.8158    92345.414   0.97182764    1037.4294 
  217000      2295000   -27632.812    289.52546    2588.1981   -30221.011   -29504.218    289.52546   -1389.5578    92345.414   0.97182764    1042.3675 
  218000      2305000   -27561.572    287.76522    2572.4626   -30134.034   -29129.386    287.76522   -1164.1354    92345.414   0.97182764    1047.2205 
  219000      2315000   -27683.504    293.51522    2623.8644   -30307.368   -29383.294    293.51522   -1262.1301    92345.414   0.97182764    1052.1652 
  220000      2325000   -27638.168    285.08353    2548.4898   -30186.658   -29228.508    285.08353   -1180.8605    92345.414   0.97182764    1057.0325 
  221000      2335000   -27699.821    287.62309     2571.192   -30271.013   -28946.133    287.62309   -925.41274    92345.414   0.97182764     1062.221 
  222000      2345000   -27662.608    291.02626    2601.6145   -30264.223   -28676.985    291.02626   -753.19622    92345.414   0.97182764    1067.1858 
  223000      2355000   -27621.165    285.63417    2553.4122   -30174.578   -29280.724    285.63417   -1232.2569    92345.414   0.97182764    1072.1332 
  224000      2365000    -27768.81    286.84189    2564.2085   -30333.018   -29419.406    286.84189   -1225.6024    92345.414   0.97182764    1077.1646 
  225000      2375000   -27728.481     287.4383    2569.5402   -30298.021   -29259.184     287.4383   -1136.5789    92345.414   0.97182764    1082.1133 
  226000      2385000   -27647.899    291.78752    2608.4197   -30256.318   -29444.401    291.78752   -1333.9409    92345.414   0.97182764    1089.1816 
  227000      2395000   -27593.279    282.65832    2526.8097   -30120.089   -29415.227    282.65832   -1352.8349    92345.414   0.97182764     1094.147 
  228000      2405000   -27712.394    289.77956    2590.4697   -30302.864   -29328.851    289.77956   -1200.2529    92345.414   0.97182764    1099.2521 
  229000      2415000   -27638.314    286.94025    2565.0878   -30203.402   -29597.695    286.94025   -1454.8821    92345.414   0.97182764    1104.2452 
  230000      2425000   -27601.243     288.6514    2580.3846   -30181.627   -29389.525     288.6514   -1327.8374    92345.414   0.97182764    1109.2913 
  231000      2435000   -27638.343    291.74624    2608.0507   -30246.394   -29090.642    291.74624   -1078.3623    92345.414   0.97182764    1114.5059 
  232000      2445000   -27660.212     284.9608    2547.3926   -30207.604    -28937.24     284.9608   -948.22047    92345.414   0.97182764    1119.5473 
  233000      2455000   -27710.072    284.03633    2539.1284   -30249.201   -29346.679    284.03633   -1215.2151    92345.414   0.97182764    1124.4907 
  234000      2465000   -27756.065    277.23191    2478.3006   -30234.366   -28946.261    277.23191   -883.74524    92345.414   0.97182764    1129.3854 
  235000      2475000   -27620.255    292.25132    2612.5658   -30232.821   -29164.813    292.25132   -1146.8664    92345.414   0.97182764    1134.3103 
  236000      2485000   -27705.258    280.20435    2504.8726   -30210.131    -28977.95    280.20435   -945.00063    92345.414   0.97182764    1139.3458 
  237000      2495000    -27752.72    281.76562    2518.8295   -30271.549   -29511.434    281.76562   -1305.8828    92345.414   0.97182764    1144.2695 
  238000      2505000   -27582.769    290.02677    2592.6796   -30175.449   -29077.289    290.02677   -1109.7122    92345.414   0.97182764    1149.1413 
  239000      2515000   -27632.313    282.24872    2523.1482   -30155.461   -29498.624    282.24872   -1385.7759    92345.414   0.97182764    1154.0979 
  240000      2525000   -27683.014    293.37403    2622.6022   -30305.616    -29495.49    293.37403   -1345.8014    92345.414   0.97182764    1159.2656 
  241000      2535000   -27692.611    283.14528    2531.1629   -30223.773   -28736.875    283.14528   -775.38867    92345.414   0.97182764    1164.3923 
  242000      2545000   -27573.951    290.04101    2592.8069   -30166.758   -29111.219    290.04101   -1141.4543    92345.414   0.97182764    1169.6358 
  243000      2555000   -27613.135    288.52782    2579.2798   -30192.415   -29206.052    288.52782   -1182.7743    92345.414   0.97182764    1176.6806 
  244000      2565000   -27778.558    286.45951    2560.7902   -30339.349   -29252.278    286.45951   -1094.2678    92345.414   0.97182764    1181.9318 
  245000      2575000   -27678.274    293.27591    2621.7252   -30299.999    -29255.45    293.27591   -1171.0862    92345.414   0.97182764    1186.8961 
  246000      2585000   -27687.973    287.21079    2567.5063    -30255.48   -29317.065    287.21079   -1209.6346    92345.414   0.97182764    1191.8542 
  247000      2595000   -27525.773    289.44907    2587.5153   -30113.289   -29048.345    289.44907   -1130.5413    92345.414   0.97182764    1196.9828 
  248000      2605000   -27638.125    290.93684    2600.8151    -30238.94   -29272.025    290.93684   -1213.2055    92345.414   0.97182764    1202.2479 
  249000      2615000   -27577.983     291.4231     2605.162   -30183.145   -29051.029     291.4231   -1093.7676    92345.414   0.97182764     1207.163 
  250000      2625000    -27736.27    276.13161    2468.4645   -30204.734   -29482.171    276.13161   -1296.3687    92345.414   0.97182764     1212.189 
  251000      2635000   -27687.845    287.79823    2572.7577   -30260.602   -29066.455    287.79823   -1023.6472    92345.414   0.97182764       1217.1 
  252000      2645000   -27753.318    283.42707    2533.6819   -30286.999   -29336.107    283.42707   -1175.2546    92345.414   0.97182764    1222.0019 
  253000      2655000   -27545.467    298.90681    2672.0623    -30217.53   -28727.716    298.90681   -877.84451    92345.414   0.97182764    1226.9449 
  254000      2665000   -27560.462    291.12749    2602.5195   -30162.982   -28940.985    291.12749   -1025.0673    92345.414   0.97182764    1232.9512 
  255000      2675000   -27604.999    295.84561    2644.6969   -30249.696   -29223.727    295.84561   -1201.9397    92345.414   0.97182764    1237.8164 
  256000      2685000    -27615.06    290.11409    2593.4602   -30208.521   -29064.695    290.11409   -1076.3844    92345.414   0.97182764    1242.6991 
  257000      2695000   -27670.114    286.15741    2558.0897   -30228.204   -29094.269    286.15741   -1057.4654    92345.414   0.97182764    1247.5632 
  258000      2705000    -27512.97    296.52813    2650.7982   -30163.768   -29055.792    296.52813   -1145.5778    92345.414   0.97182764    1252.4522 
  259000      2715000   -27615.297    288.89065    2582.5233   -30197.821   -29261.384    288.89065   -1222.2537    92345.414   0.97182764     1257.513 
  260000      2725000   -27746.942    285.40469    2551.3608   -30298.302   -29553.733    285.40469   -1341.5807    92345.414   0.97182764    1262.9627 
  261000      2735000   -27658.512    284.75929    2545.5912   -30204.103   -29554.669    284.75929    -1407.937    92345.414   0.97182764    1270.8907 
  262000      2745000   -27603.669    295.05325    2637.6136   -30241.282   -28863.489    295.05325   -935.44328    92345.414   0.97182764    1278.4037 
  263000      2755000   -27813.675     281.2574    2514.2863   -30327.962   -29428.669     281.2574   -1199.1666    92345.414   0.97182764    1283.4707 
  264000      2765000   -27726.772    278.37393    2488.5096   -30215.282    -29292.95    278.37393   -1162.9202    92345.414   0.97182764    1288.4197 
  265000      2775000   -27626.257    295.87548    2644.9639   -30271.221   -29115.373    295.87548   -1105.7003    92345.414   0.97182764    1293.8017 
  266000      2785000   -27661.492     285.3517     2550.887   -30212.379   -29481.116     285.3517   -1351.1093    92345.414   0.97182764    1298.9726 
  267000      2795000   -27622.509    282.73679    2527.5112    -30150.02    -28993.11    282.73679   -1017.7007    92345.414   0.97182764    1308.3777 
  268000      2805000   -27642.044    289.61035    2588.9571   -30231.001   -29055.668    289.61035    -1049.646    92345.414   0.97182764    1313.8125 
  269000      2815000   -27691.866    279.63113    2499.7484   -30191.614   -29287.941    279.63113   -1185.1197    92345.414   0.97182764    1318.9927 
  270000      2825000   -27667.502     287.5863    2570.8632   -30238.366   -29192.748     287.5863   -1132.5267    92345.414   0.97182764    1327.1343 
  271000      2835000   -27594.941    290.60851      2597.88   -30192.821   -29938.649    290.60851   -1740.2526    92345.414   0.97182764    1335.5196 
  272000      2845000   -27592.686    286.30497    2559.4088   -30152.095   -29211.075    286.30497    -1201.688    92345.414   0.97182764    1340.9007 
  273000      2855000   -27679.779    285.60742     2553.173   -30232.952   -29259.166    285.60742   -1172.7277    92345.414   0.97182764    1346.4223 
  274000      2865000   -27690.579    287.25112    2567.8668   -30258.446   -28920.779    287.25112   -913.44901    92345.414   0.97182764    1351.9306 
  275000      2875000   -27718.609    288.19405    2576.2961   -30294.905   -29586.689    288.19405   -1387.0889    92345.414   0.97182764    1356.8015 
  276000      2885000   -27587.802    288.55751    2579.5452   -30167.347   -28933.844    288.55751   -999.46431    92345.414   0.97182764    1361.6956 
  277000      2895000   -27629.565    290.88507    2600.3524   -30229.917   -29520.854    290.88507   -1404.3224    92345.414   0.97182764    1366.7254 
  278000      2905000   -27650.142    291.51458    2605.9798   -30256.122   -28741.203    291.51458   -810.13609    92345.414   0.97182764    1371.5947 
  279000      2915000   -27622.162    291.52653    2606.0866   -30228.248   -28766.088    291.52653   -849.38952    92345.414   0.97182764    1380.5018 
  280000      2925000   -27692.775    287.92374    2573.8797   -30266.655   -29300.936    287.92374   -1194.0931    92345.414   0.97182764    1387.4911 
  281000      2935000   -27452.776      299.343    2675.9616   -30128.737   -29032.833      299.343   -1173.2255    92345.414   0.97182764    1392.8438 
  282000      2945000   -27657.776    290.09762     2593.313   -30251.088   -29470.049    290.09762   -1345.6513    92345.414   0.97182764    1397.9863 
  283000      2955000    -27711.82    287.85849    2573.2964   -30285.116   -29457.562    287.85849   -1296.2505    92345.414   0.97182764    1403.0085 
  284000      2965000   -27529.601    293.36184    2622.4933   -30152.094   -28693.583    293.36184   -864.28143    92345.414   0.97182764    1408.0472 
  285000      2975000   -27644.963    288.55709    2579.5415   -30224.504   -29625.055    288.55709     -1470.26    92345.414   0.97182764    1413.0453 
  286000      2985000    -27717.13    287.63033    2571.2568   -30288.386   -29529.988    287.63033   -1346.0855    92345.414   0.97182764    1417.9573 
  287000      2995000   -27694.682    283.49104    2534.2538   -30228.936    -29735.65    283.49104   -1515.4614    92345.414   0.97182764    1423.3221 
  288000      3005000   -27558.289    292.78449    2617.3321   -30175.621   -29845.779    292.78449   -1698.5094    92345.414   0.97182764     1428.468 
  289000      3015000   -27760.572    283.43987    2533.7964   -30294.368   -29398.188    283.43987   -1215.9645    92345.414   0.97182764    1433.3963 
  290000      3025000   -27678.082    288.25566    2576.8469   -30254.929   -29213.921    288.25566   -1140.3929    92345.414   0.97182764    1438.5591 
  291000      3035000   -27647.485    285.72317    2554.2078   -30201.692    -29210.52    285.72317    -1160.587    92345.414   0.97182764    1443.8044 
  292000      3045000   -27725.622    283.76098    2536.6669   -30262.289   -29407.839    283.76098   -1249.0816    92345.414   0.97182764    1448.7775 
  293000      3055000   -27725.033    288.76701    2581.4181   -30306.451    -29407.11    288.76701   -1248.9781    92345.414   0.97182764    1453.6455 
  294000      3065000   -27592.378    292.72117    2616.7661   -30209.144   -28946.973    292.72117    -1005.815    92345.414   0.97182764    1458.6323 
  295000      3075000    -27586.39    292.87564    2618.1469   -30204.537   -28989.354    292.87564   -1041.7304    92345.414   0.97182764    1464.2557 
  296000      3085000   -27604.216    288.21895    2576.5187   -30180.735   -29495.403    288.21895   -1404.2461    92345.414   0.97182764    1469.1885 
  297000      3095000   -27634.642    294.60425    2633.5998   -30268.241   -29183.279    294.60425   -1149.8959    92345.414   0.97182764    1474.1325 
  298000      3105000   -27664.337    283.97845     2538.611   -30202.948   -29177.667    283.97845   -1123.6792    92345.414   0.97182764    1479.4699 
  299000      3115000   -27695.135    294.78833    2635.2454    -30330.38   -29139.683    294.78833   -1072.6069    92345.414   0.97182764    1484.7166 
  300000      3125000   -27802.271    281.75286    2518.7154   -30320.987   -29205.138    281.75286   -1041.6577    92345.414   0.97182764    1489.6402 
  301000      3135000   -27638.816    286.27181    2559.1123   -30197.929   -29235.504    286.27181   -1185.5738    92345.414   0.97182764     1494.893 
  302000      3145000   -27783.781    287.99237    2574.4932   -30358.274   -28995.806    287.99237   -899.95392    92345.414   0.97182764    1499.7966 
  303000      3155000   -27585.221    290.62186    2597.9994    -30183.22   -29115.146    290.62186   -1136.0014    92345.414   0.97182764    1505.5477 
  304000      3165000   -27683.263    287.66948    2571.6068    -30254.87   -28931.356    287.66948   -926.73579    92345.414   0.97182764    1511.0383 
  305000      3175000    -27651.42    289.66817    2589.4739   -30240.894   -29236.442    289.66817   -1176.9121    92345.414   0.97182764    1516.1841 
  306000      3185000   -27829.368    278.03818    2485.5083   -30314.876   -29346.101    278.03818   -1126.2066    92345.414   0.97182764    1521.2703 
  307000      3195000   -27622.518    289.38698    2586.9602   -30209.478   -29153.965    289.38698   -1137.1319    92345.414   0.97182764    1526.1224 
  308000      3205000   -27594.261    293.18707     2620.931   -30215.192   -29127.409    293.18707   -1138.3943    92345.414   0.97182764    1531.1143 
  309000      3215000    -27668.28    287.71617    2572.0241   -30240.304   -28801.295    287.71617   -841.28785    92345.414   0.97182764     1536.077 
  310000      3225000   -27751.494    282.58588    2526.1622   -30277.656   -28843.827    282.58588   -811.08055    92345.414   0.97182764    1540.9377 
  311000      3235000   -27690.624    289.94808    2591.9762   -30282.601   -29721.522    289.94808   -1507.9844    92345.414   0.97182764    1545.8428 
  312000      3245000   -27659.251    286.36536    2559.9486   -30219.199   -29004.838    286.36536   -999.12694    92345.414   0.97182764    1550.8571 
  313000      3255000   -27661.971     288.3768    2577.9298   -30239.901   -29556.298     288.3768   -1406.5775    92345.414   0.97182764    1555.8708 
  314000      3265000   -27668.587    287.04686    2566.0409   -30234.628   -29044.078    287.04686   -1021.3307    92345.414   0.97182764    1560.7424 
  315000      3275000   -27702.483    287.91969    2573.8434   -30276.326   -29288.554    287.91969   -1177.6912    92345.414   0.97182764    1566.0725 
  316000      3285000   -27709.269    280.38182    2506.4591   -30215.728   -29365.524    280.38182   -1229.8038    92345.414   0.97182764    1575.2489 
  317000      3295000   -27576.601    290.04456    2592.8386    -30169.44   -29048.375    290.04456   -1092.8231    92345.414   0.97182764    1583.8021 
  318000      3305000    -27798.86    281.17895    2513.5849   -30312.445    -29118.52    281.17895   -979.87574    92345.414   0.97182764      1589.67 
  319000      3315000   -27634.453    287.01436    2565.7503   -30200.203   -29294.674    287.01436   -1232.7491    92345.414   0.97182764    1595.2359 
  320000      3325000   -27711.393    286.87089    2564.4677    -30275.86   -29411.315    286.87089   -1262.2284    92345.414   0.97182764    1600.1577 
  321000      3335000    -27701.43    290.34443    2595.5193   -30296.949    -29552.78    290.34443   -1374.6666    92345.414   0.97182764    1605.0673 
  322000      3345000   -27731.394    285.28716    2550.3101   -30281.704   -29930.161    285.28716   -1632.6309    92345.414   0.97182764    1610.0207 
  323000      3355000   -27698.871    290.24154    2594.5996   -30293.471   -29482.895    290.24154    -1324.675    92345.414   0.97182764    1615.0453 
  324000      3365000   -27603.038    285.28745    2550.3127    -30153.35   -29393.459    285.28745   -1329.4255    92345.414   0.97182764    1619.9365 
  325000      3375000   -27728.909    284.49631    2543.2403    -30272.15   -29661.169    284.49631   -1434.7436    92345.414   0.97182764    1624.8596 
  326000      3385000   -27754.927    284.73458    2545.3703   -30300.298   -29466.039    284.73458   -1270.5361    92345.414   0.97182764    1629.8002 
  327000      3395000   -27681.663    280.60015    2508.4108   -30190.074    -29203.18    280.60015    -1129.758    92345.414   0.97182764    1634.6965 
  328000      3405000   -27678.661    291.47294    2605.6075   -30284.268   -29458.084    291.47294   -1321.2591    92345.414   0.97182764    1639.5861 
  329000      3415000   -27674.664    282.38878    2524.4002   -30199.064   -29282.851    282.38878   -1194.1123    92345.414   0.97182764    1644.9334 
  330000      3425000   -27768.801    286.41172    2560.3631   -30329.164   -29201.424    286.41172   -1063.7527    92345.414   0.97182764    1650.3383 
  331000      3435000   -27682.669    287.02352    2565.8322   -30248.501   -29384.822    287.02352   -1263.8847    92345.414   0.97182764    1656.3424 
  332000      3445000   -27551.387    286.84182    2564.2079   -30115.595   -29436.123    286.84182   -1399.4561    92345.414   0.97182764    1661.9719 
  333000      3455000    -27771.82    285.86359    2555.4631   -30327.283   -29530.175    285.86359   -1305.6151    92345.414   0.97182764    1669.0275 
  334000      3465000   -27683.035    286.60284    2562.0716   -30245.107   -29244.049    286.60284   -1159.0854    92345.414   0.97182764    1675.3901 
  335000      3475000   -27803.695    282.01244    2521.0359   -30324.731   -29518.852    282.01244   -1273.5408    92345.414   0.97182764     1681.012 
  336000      3485000   -27729.451    284.05431    2539.2891    -30268.74   -28875.788    284.05431   -851.17965    92345.414   0.97182764    1685.9072 
  337000      3495000   -27832.532     287.5061    2570.1462   -30402.678   -29604.699     287.5061   -1315.8716    92345.414   0.97182764    1691.2108 
  338000      3505000   -27635.327    286.63566     2562.365   -30197.692   -29611.268    286.63566   -1467.1778    92345.414   0.97182764    1696.9256 
  339000      3515000   -27678.593    290.38014    2595.8385   -30274.431   -29297.934    290.38014   -1202.3952    92345.414   0.97182764    1702.1356 
  340000      3525000   -27706.689    282.90754    2529.0376   -30235.727   -28804.904    282.90754   -815.44719    92345.414   0.97182764    1707.6488 
  341000      3535000   -27520.143    293.83863    2626.7555   -30146.899   -29502.781    293.83863     -1472.15    92345.414   0.97182764    1712.9206 
  342000      3545000   -27731.898    282.04819    2521.3555   -30253.254   -29384.442    282.04819   -1227.0486    92345.414   0.97182764    1718.5694 
  343000      3555000   -27775.145     275.7113    2464.7072   -30239.852   -29428.404     275.7113   -1227.5795    92345.414   0.97182764     1725.072 
  344000      3565000   -27586.393    291.56114     2606.396   -30192.789   -28855.919    291.56114    -942.6501    92345.414   0.97182764    1729.9754 
  345000      3575000   -27718.076    283.20971    2531.7389   -30249.815   -29155.716    283.20971   -1067.4781    92345.414   0.97182764    1736.2867 
  346000      3585000   -27737.232    288.48748    2578.9192   -30316.151   -29227.378    288.48748   -1106.4648    92345.414   0.97182764    1743.9027 
  347000      3595000   -27577.243      289.212     2585.396   -30162.639   -28805.366      289.212   -911.90738    92345.414   0.97182764    1749.4171 
  348000      3605000   -27681.849    292.35564    2613.4984   -30295.347   -29277.392    292.35564   -1184.7244    92345.414   0.97182764     1754.518 
  349000      3615000   -27858.766    274.04523    2449.8135   -30308.579   -29815.112    274.04523   -1452.6282    92345.414   0.97182764    1759.4494 
  350000      3625000   -27673.407    288.84881    2582.1493   -30255.557   -29831.302    288.84881   -1602.2822    92345.414   0.97182764    1764.3896 
  351000      3635000   -27687.791    288.81911    2581.8838   -30269.675   -29493.495    288.81911   -1340.7735    92345.414   0.97182764    1769.2993 
  352000      3645000   -27578.809    292.90907    2618.4458   -30197.255   -29077.593    292.90907   -1112.8785    92345.414   0.97182764    1774.8658 
  353000      3655000   -27760.858    286.03361     2556.983   -30317.841   -29573.992    286.03361   -1346.2899    92345.414   0.97182764    1779.8672 
  354000      3665000    -27735.19    285.49552    2552.1728   -30287.363   -28583.156    285.49552   -629.63213    92345.414   0.97182764    1784.8135 
  355000      3675000   -27714.732    289.22169    2585.4826   -30300.214   -29261.073    289.22169   -1148.1912    92345.414   0.97182764    1789.7313 
  356000      3685000    -27827.44    275.21057     2460.231   -30287.671    -29730.41    275.21057   -1412.9951    92345.414   0.97182764     1794.588 
  357000      3695000   -27872.005    278.98944     2494.012   -30366.017     -29696.3    278.98944   -1354.5774    92345.414   0.97182764    1799.6951 
  358000      3705000   -27733.173     280.5683    2508.1261   -30241.299   -29318.011     280.5683   -1176.7759    92345.414   0.97182764    1804.6455 
  359000      3715000   -27693.196    285.77924     2554.709   -30247.905   -29627.814    285.77924   -1436.4946    92345.414   0.97182764    1809.5179 
  360000      3725000   -27767.892    291.38139    2604.7892   -30372.682   -29675.278    291.38139   -1416.2742    92345.414   0.97182764    1814.5659 
  361000      3735000   -27750.677    284.06786    2539.4102   -30290.087   -29101.078    284.06786    -1002.701    92345.414   0.97182764    1820.1629 
  362000      3745000    -27744.72    284.85593    2546.4551   -30291.175   -29314.788    284.85593   -1165.8085    92345.414   0.97182764    1825.1017 
  363000      3755000   -27570.075    283.05451    2530.3514   -30100.427   -29511.672    283.05451   -1441.6763    92345.414   0.97182764    1830.9653 
  364000      3765000   -27757.175    284.00587    2538.8561   -30296.031   -29437.647    284.00587   -1247.7856    92345.414   0.97182764     1836.851 
  365000      3775000   -27652.546    289.51824    2588.1336    -30240.68    -29036.31    289.51824   -1027.4742    92345.414   0.97182764    1841.8807 
  366000      3785000   -27788.067    283.47705    2534.1287   -30322.196   -29337.789    283.47705    -1150.701    92345.414   0.97182764    1847.7494 
  367000      3795000   -27665.101    286.07588    2557.3609   -30222.462   -29053.144    286.07588   -1030.6513    92345.414   0.97182764    1852.7859 
  368000      3805000   -27618.294    290.18726    2594.1143   -30212.408   -29474.443    290.18726     -1378.23    92345.414   0.97182764    1860.5127 
  369000      3815000   -27758.547    278.51199    2489.7439   -30248.291     -29836.6    278.51199   -1542.9979    92345.414   0.97182764    1865.8058 
  370000      3825000    -27588.07    296.24977    2648.3098    -30236.38   -29232.166    296.24977   -1220.7756    92345.414   0.97182764    1876.5118 
  371000      3835000   -27757.714    287.65888     2571.512   -30329.226   -29722.685    287.65888   -1459.0326    92345.414   0.97182764     1885.754 
  372000      3845000   -27681.714    281.20115    2513.7834   -30195.497   -29334.726    281.20115   -1227.3962    92345.414   0.97182764     1891.355 
  373000      3855000   -27714.027    288.78247    2581.5562   -30295.584   -29325.968    288.78247   -1196.8999    92345.414   0.97182764    1897.6571 
  374000      3865000   -27682.828    289.97916     2592.254   -30275.082   -29184.534    289.97916   -1115.0487    92345.414   0.97182764    1905.0027 
  375000      3875000   -27832.707    278.86659    2492.9138   -30325.621   -29652.186    278.86659   -1351.0015    92345.414   0.97182764    1910.3575 
  376000      3885000   -27641.871    292.38607    2613.7704   -30255.641   -29044.215    292.38607   -1041.2705    92345.414   0.97182764     1917.047 
  377000      3895000   -27731.793    287.93691    2573.9974    -30305.79   -29304.407    287.93691   -1167.6993    92345.414   0.97182764    1922.4057 
  378000      3905000   -27861.898    282.23239    2523.0022     -30384.9   -29152.542    282.23239    -958.3308    92345.414   0.97182764    1927.3326 
  379000      3915000    -27707.28    289.26924    2585.9077   -30293.188    -29515.53    289.26924   -1342.6641    92345.414   0.97182764    1932.1984 
  380000      3925000   -27736.895    282.43294     2524.795    -30261.69   -28872.537    282.43294   -843.23804    92345.414   0.97182764    1937.2634 
  381000      3935000   -27650.562    288.69858    2580.8063   -30231.368   -29367.104    288.69858   -1274.5687    92345.414   0.97182764    1942.1476 
  382000      3945000     -27675.6    282.39347    2524.4421   -30200.042   -29048.785    282.39347   -1019.6192    92345.414   0.97182764    1947.0547 
  383000      3955000   -27811.076     282.4452    2524.9045   -30335.981   -29412.781     282.4452   -1189.2992    92345.414   0.97182764    1951.9508 
  384000      3965000   -27745.552    289.17712    2585.0842   -30330.636   -29823.414    289.17712    -1542.856    92345.414   0.97182764     1956.818 
  385000      3975000   -27591.304    287.60382    2571.0197   -30162.324   -29112.292    287.60382   -1129.3654    92345.414   0.97182764    1961.7187 
  386000      3985000   -27736.991    285.17502    2549.3077   -30286.299   -29967.235    285.17502   -1656.0026    92345.414   0.97182764     1966.588 
  387000      3995000   -27738.158    286.76708    2563.5397   -30301.698   -29565.728    286.76708   -1357.0089    92345.414   0.97182764    1971.4543 
  388000      4005000   -27735.396    286.05929    2557.2125   -30292.608   -29065.315    286.05929   -987.49331    92345.414   0.97182764    1976.5143 
  389000      4015000    -27726.86    280.11884    2504.1082   -30230.968   -29750.265    280.11884   -1502.4207    92345.414   0.97182764    1981.5916 
  390000      4025000   -27624.588    288.55657    2579.5368   -30204.124    -29157.63    288.55657    -1138.316    92345.414   0.97182764    1986.6024 
  391000      4035000   -27847.399    277.75317    2482.9604   -30330.359    -29398.04    277.75317   -1151.3837    92345.414   0.97182764     1991.839 
  392000      4045000   -27698.594     284.5181    2543.4351   -30242.029   -29164.389     284.5181   -1088.3841    92345.414   0.97182764    1997.6703 
  393000      4055000   -27753.889    287.20819    2567.4831   -30321.372   -29693.248    287.20819   -1440.0152    92345.414   0.97182764    2003.1238 
  394000      4065000   -27828.984    285.31309    2550.5419   -30379.526   -29273.445    285.31309   -1072.5427    92345.414   0.97182764    2008.0672 
  395000      4075000   -27675.239    281.86783    2519.7432   -30194.983    -29192.05    281.86783   -1126.2634    92345.414   0.97182764    2013.1712 
  396000      4085000   -27684.721    287.35113    2568.7609   -30253.482   -29205.412    287.35113    -1129.145    92345.414   0.97182764    2018.1744 
  397000      4095000   -27737.875    282.82081    2528.2623   -30266.138   -29505.547    282.82081   -1312.5336    92345.414   0.97182764    2022.9524 
  398000      4105000    -27754.38    287.93733    2574.0012   -30328.381    -29779.21    287.93733   -1503.4791    92345.414   0.97182764    2027.8589 
  399000      4115000   -27824.357    280.56308    2508.0794   -30332.437   -29521.573    280.56308   -1260.2184    92345.414   0.97182764    2032.6447 
  400000      4125000   -27706.586    283.93679    2538.2385   -30244.825   -28743.601    283.93679    -770.0054    92345.414   0.97182764    2037.5892 
  401000      4135000   -27733.705     285.1631    2549.2011   -30282.906   -29482.765     285.1631   -1298.7139    92345.414   0.97182764    2042.3862 
  402000      4145000   -27759.977    289.29676    2586.1537   -30346.131   -29186.862    289.29676   -1059.4925    92345.414   0.97182764    2047.2549 
  403000      4155000    -27700.64    289.63278    2589.1576   -30289.797    -29370.74    289.63278   -1240.0846    92345.414   0.97182764    2051.9855 
  404000      4165000   -27738.701    283.25891    2532.1787    -30270.88   -29496.371    283.25891   -1305.1063    92345.414   0.97182764    2056.8772 
  405000      4175000   -27768.897    282.81995    2528.2546   -30297.152   -28935.561    282.81995   -866.27204    92345.414   0.97182764    2061.6465 
  406000      4185000   -27743.109    283.76025    2536.6604   -30279.769    -28926.34    283.76025   -878.57409    92345.414   0.97182764    2066.4614 
  407000      4195000   -27816.599    280.95236    2511.5594   -30328.158   -29754.719    280.95236    -1439.095    92345.414   0.97182764    2071.1677 
  408000      4205000   -27636.828    290.66261    2598.3637   -30235.191   -29268.473    290.66261   -1211.5312    92345.414   0.97182764    2075.8734 
  409000      4215000    -27920.87    277.91153    2484.3761   -30405.246   -29989.135    277.91153   -1535.7302    92345.414   0.97182764    2080.5288 
  410000      4225000    -27709.64    281.96034    2520.5702    -30230.21     -29767.5    281.96034   -1528.0046    92345.414   0.97182764    2085.2165 
  411000      4235000   -27738.934    289.13285    2584.6885   -30323.622    -29649.55    289.13285   -1418.6725    92345.414   0.97182764      2089.87 
  412000      4245000   -27612.549    290.93182    2600.7703   -30213.319   -29021.422    290.93182    -1046.118    92345.414   0.97182764    2094.5433 
  413000      4255000   -27737.583    282.62777    2526.5366    -30264.12   -29548.545    282.62777   -1344.6774    92345.414   0.97182764    2099.3468 
  414000      4265000   -27849.151    282.85463    2528.5646   -30377.715   -29496.489    282.85463   -1223.1836    92345.414   0.97182764     2104.043 
  415000      4275000   -27656.117    290.25223    2594.6951   -30250.812   -29514.444    290.25223   -1379.8468    92345.414   0.97182764       2108.7 
  416000      4285000   -27801.285    279.46199    2498.2363   -30299.521   -29589.957    279.46199   -1328.1272    92345.414   0.97182764    2113.3914 
  417000      4295000   -27749.085    279.34434    2497.1846    -30246.27   -29149.913    279.34434   -1040.1442    92345.414   0.97182764    2118.0588 
  418000      4305000       -27752    278.94085    2493.5776   -30245.578   -29472.848    278.94085   -1277.7654    92345.414   0.97182764    2122.8865 
  419000      4315000   -27741.387    282.88298     2528.818   -30270.205   -29355.867    282.88298   -1198.7851    92345.414   0.97182764    2127.5383 
  420000      4325000   -27705.128    287.87489     2573.443   -30278.571   -29508.062    287.87489   -1338.7163    92345.414   0.97182764    2132.3536 
  421000      4335000   -27847.044    273.60203    2445.8515   -30292.896   -29847.542    273.60203   -1485.4117    92345.414   0.97182764    2137.0697 
  422000      4345000   -27831.499    279.99271    2502.9806    -30334.48   -29886.209    279.99271   -1525.6656    92345.414   0.97182764    2141.9123 
  423000      4355000   -27736.421    285.55867    2552.7373   -30289.158   -29314.261    285.55867   -1171.5795    92345.414   0.97182764    2146.6167 
  424000      4365000   -27696.713    284.03871    2539.1497   -30235.863   -29976.217    284.03871   -1692.5795    92345.414   0.97182764    2151.3837 
  425000      4375000   -27737.075    285.87591    2555.5732   -30292.648   -29620.283    285.87591   -1398.3217    92345.414   0.97182764    2156.1345 
  426000      4385000     -27845.7    288.42874    2578.3941   -30424.095   -29626.743    288.42874   -1322.4615    92345.414   0.97182764    2160.7924 
  427000      4395000     -27706.6    282.88272    2528.8158   -30235.416   -29496.104    282.88272   -1328.7438    92345.414   0.97182764    2165.5207 
  428000      4405000    -27704.03    293.32566    2622.1699     -30326.2   -29342.622    293.32566   -1216.6892    92345.414   0.97182764    2170.2755 
  429000      4415000   -27675.201    294.79738    2635.3262   -30310.528   -29101.327    294.79738   -1058.9283    92345.414   0.97182764    2175.1744 
  430000      4425000   -27827.406    282.54315    2525.7802   -30353.186   -29798.488    282.54315   -1463.5698    92345.414   0.97182764    2179.9163 
  431000      4435000   -27630.759    290.63686    2598.1335   -30228.892   -29274.308    290.63686   -1220.3698    92345.414   0.97182764    2184.8022 
  432000      4445000   -27770.532    280.56995    2508.1408   -30278.673   -29919.357    280.56995   -1595.5474    92345.414   0.97182764    2189.5167 
  433000      4455000   -27683.015    286.36874    2559.9789   -30242.994   -29201.403    286.36874   -1127.4346    92345.414   0.97182764    2194.2346 
  434000      4465000   -27753.325    280.04057    2503.4085   -30256.733   -29965.502    280.04057   -1642.5878    92345.414   0.97182764     2199.077 
  435000      4475000   -27651.023    288.76787    2581.4258   -30232.449   -29456.501    288.76787   -1340.6055    92345.414   0.97182764    2203.7396 
  436000      4485000    -27809.26    282.08216    2521.6591   -30330.919   -29321.116    282.08216   -1122.5849    92345.414   0.97182764      2208.45 
  437000      4495000   -27772.319      281.197    2513.7464   -30286.065   -29496.587      281.197   -1280.3056    92345.414   0.97182764    2213.1787 
  438000      4505000   -27655.134    292.47451    2614.5611   -30269.696   -29556.028    292.47451   -1411.4533    92345.414   0.97182764    2218.8728 
  439000      4515000   -27795.498    283.07657    2530.5487   -30326.046   -29480.396    283.07657   -1251.0724    92345.414   0.97182764      2226.15 
  440000      4525000   -27639.731    286.72579    2563.1707   -30202.902   -29254.762    286.72579   -1199.1948    92345.414   0.97182764    2231.4977 
[...]
 1878000     18905000   -28513.014    254.43562    2274.5144   -30787.529   -30531.116    254.43562    -1498.483    92345.414   0.97182764    10016.425 
 1879000     18915000   -28539.336    256.04703    2288.9195   -30828.255   -30217.602    256.04703   -1246.1479    92345.414   0.97182764    10021.748 
 1880000     18925000   -28578.722    250.90524    2242.9547   -30821.677   -30452.678    250.90524   -1391.4514    92345.414   0.97182764     10028.42 
 1881000     18935000   -28523.247    258.64644    2312.1568   -30835.404   -30661.552    258.64644   -1587.7361    92345.414   0.97182764    10037.047 
 1882000     18945000   -28577.108    254.29395    2273.2479   -30850.356   -30113.078    254.29395   -1140.4897    92345.414   0.97182764    10043.543 
 1883000     18955000   -28586.829    257.37688    2300.8076   -30887.637   -30543.666    257.37688   -1452.9922    92345.414   0.97182764    10050.063 
 1884000     18965000    -28584.04    257.08228     2298.174   -30882.214    -30400.89    257.08228   -1349.0497    92345.414   0.97182764    10056.139 
 1885000     18975000   -28557.427     256.1995    2290.2825    -30847.71   -30527.761     256.1995   -1463.0143    92345.414   0.97182764    10062.619 
 1886000     18985000   -28608.354    254.45842    2274.7181   -30883.073   -30510.846    254.45842   -1412.6399    92345.414   0.97182764    10069.654 
 1887000     18995000   -28675.211    255.57331    2284.6847   -30959.896   -29826.306    255.57331   -854.71216    92345.414   0.97182764    10077.054 
 1888000     19005000   -28587.119    254.30891    2273.3816     -30860.5     -29993.4    254.30891   -1044.1935    92345.414   0.97182764    10081.757 
 1889000     19015000   -28587.459    255.35214    2282.7075   -30870.166   -30471.173    255.35214   -1398.6978    92345.414   0.97182764    10086.748 
 1890000     19025000   -28500.214    260.70045    2330.5184   -30830.732   -30013.765    260.70045   -1123.8433    92345.414   0.97182764    10092.299 
 1891000     19035000    -28688.37    253.08269    2262.4199    -30950.79   -29817.827    253.08269   -838.64572    92345.414   0.97182764    10099.641 
 1892000     19045000   -28536.772    252.92342    2260.9961   -30797.768   -30193.141    252.92342    -1229.889    92345.414   0.97182764    10104.957 
 1893000     19055000   -28678.038    252.31955    2255.5978   -30933.636   -30361.085    252.31955   -1249.6978    92345.414   0.97182764    10110.056 
 1894000     19065000   -28548.299    255.04052    2279.9218   -30828.221   -30226.912    255.04052   -1246.4052    92345.414   0.97182764    10115.194 
 1895000     19075000    -28622.28    253.21077    2263.5648   -30885.845   -30102.919    253.21077   -1099.4055    92345.414   0.97182764    10120.112 
 1896000     19085000   -28449.122    250.20158    2236.6643   -30685.786   -30449.728    250.20158    -1485.492    92345.414   0.97182764    10125.511 
 1897000     19095000   -28519.486    252.06474      2253.32   -30772.806   -29856.318    252.06474   -992.62541    92345.414   0.97182764    10130.735 
 1898000     19105000   -28660.128    249.98903    2234.7642   -30894.892   -30404.295    249.98903   -1295.0806    92345.414   0.97182764    10135.884 
 1899000     19115000   -28554.819    255.18675    2281.2291   -30836.048   -30245.484    255.18675   -1255.3544    92345.414   0.97182764    10140.753 
 1900000     19125000    -28605.45    255.84194    2287.0861   -30892.536   -30260.835    255.84194   -1229.1583    92345.414   0.97182764    10145.642 
 1901000     19135000   -28603.465    254.05883     2271.146   -30874.611   -30561.789    254.05883   -1454.0967    92345.414   0.97182764    10151.164 
 1902000     19145000   -28525.807    258.75489    2313.1262   -30838.933   -30027.153    258.75489   -1114.7815    92345.414   0.97182764    10158.684 
 1903000     19155000   -28459.662    251.65009    2249.6132   -30709.275   -30817.651    251.65009   -1750.8559    92345.414   0.97182764    10164.462 
 1904000     19165000   -28501.928    258.67432     2312.406   -30814.334   -30286.812    258.67432    -1325.314    92345.414   0.97182764    10169.716 
 1905000     19175000   -28641.446    250.72299    2241.3255   -30882.772   -30312.869    250.72299    -1241.067    92345.414   0.97182764     10174.45 
 1906000     19185000   -28585.328    251.29477    2246.4368   -30831.764   -30268.692    251.29477   -1249.9333    92345.414   0.97182764    10179.515 
 1907000     19195000   -28558.495    256.95293    2297.0177   -30855.513   -29919.236    256.95293   -1010.3786    92345.414   0.97182764     10186.06 
 1908000     19205000   -28531.652    259.47813    2319.5916   -30851.243    -30591.33    259.47813   -1529.3549    92345.414   0.97182764    10191.153 
 1909000     19215000   -28630.766    253.17722     2263.265   -30894.031   -31324.628    253.17722   -2000.2492    92345.414   0.97182764    10196.563 
 1910000     19225000    -28677.97    250.18987    2236.5597    -30914.53   -30894.712    250.18987   -1645.9771    92345.414   0.97182764    10201.486 
 1911000     19235000   -28627.063    250.31263    2237.6571    -30864.72   -30978.586    250.31263   -1746.0553    92345.414   0.97182764    10206.791 
 1912000     19245000   -28642.701    255.46233    2283.6926   -30926.394   -30307.079    255.46233   -1235.8358    92345.414   0.97182764    10211.851 
 1913000     19255000   -28530.321    258.89473    2314.3764   -30844.697   -30117.417    258.89473   -1178.4525    92345.414   0.97182764    10217.768 
 1914000     19265000    -28658.28    252.21758    2254.6863   -30912.966   -30268.748    252.21758   -1195.8068    92345.414   0.97182764    10224.236 
 1915000     19275000   -28559.067    245.88108    2198.0415   -30757.109   -30235.554    245.88108   -1244.8266    92345.414   0.97182764     10228.99 
 1916000     19285000   -28641.783    257.86336    2305.1564    -30946.94   -30248.442    257.86336   -1192.9777    92345.414   0.97182764    10233.881 
 1917000     19295000   -28706.069    250.50694    2239.3941   -30945.463   -30751.383    250.50694   -1518.6888    92345.414   0.97182764     10238.94 
 1918000     19305000   -28528.163    259.36274    2318.5601   -30846.724   -29662.403    259.36274   -842.19706    92345.414   0.97182764     10243.57 
 1919000     19315000   -28696.946     256.0599    2289.0345    -30985.98   -29967.867     256.0599   -943.68625    92345.414   0.97182764    10248.173 
 1920000     19325000   -28532.873    250.43108    2238.7159   -30771.589   -30265.384    250.43108   -1286.4259    92345.414   0.97182764    10252.755 
 1921000     19335000   -28524.923    251.51449     2248.401   -30773.324   -30709.694    251.51449   -1622.2379    92345.414   0.97182764    10260.813 
 1922000     19345000   -28725.896    254.20209    2272.4267   -30998.323    -30328.43    254.20209    -1189.915    92345.414   0.97182764    10265.688 
 1923000     19355000    -28643.74    255.74657    2286.2335   -30929.974   -30418.762    255.74657   -1317.9912    92345.414   0.97182764    10271.358 
 1924000     19365000   -28686.659    254.84131     2278.141     -30964.8   -30182.133    254.84131    -1110.421    92345.414   0.97182764    10277.331 
 1925000     19375000   -28557.849    257.99843    2306.3639   -30864.213   -30106.102    257.99843   -1149.6107    92345.414   0.97182764    10282.316 
 1926000     19385000   -28609.147    251.55112    2248.7285   -30857.876    -30015.53    251.55112   -1044.2688    92345.414   0.97182764    10287.199 
 1927000     19395000   -28537.003    252.90176    2260.8025   -30797.806   -30463.627    252.90176   -1430.5585    92345.414   0.97182764    10291.942 
 1928000     19405000   -28575.158    255.26013     2281.885   -30857.043   -30385.041    255.26013   -1343.8766    92345.414   0.97182764    10296.705 
 1929000     19415000   -28629.737    254.91646    2278.8128   -30908.549   -30291.511    254.91646   -1233.9024    92345.414   0.97182764     10301.56 
 1930000     19425000   -28617.908    255.12892    2280.7121    -30898.62   -30249.098    255.12892   -1211.1931    92345.414   0.97182764     10306.46 
 1931000     19435000   -28700.162    254.43525     2274.511   -30974.673   -30797.843    254.43525   -1557.5724    92345.414   0.97182764     10312.38 
 1932000     19445000    -28646.31    253.92892    2269.9847   -30916.295   -30349.268    253.92892   -1264.4818    92345.414   0.97182764    10319.708 
 1933000     19455000   -28593.418     255.2028    2281.3725   -30874.791   -30311.118     255.2028   -1275.4283    92345.414   0.97182764    10324.992 
 1934000     19465000    -28677.59    251.36624    2247.0758   -30924.666   -30672.482    251.36624   -1481.2499    92345.414   0.97182764     10330.07 
 1935000     19475000   -28599.708    256.62207      2294.06   -30893.768   -30159.931    256.62207   -1158.4982    92345.414   0.97182764    10334.896 
 1936000     19485000   -28596.678    252.85159     2260.354   -30857.032    -30218.47    252.85159   -1204.2147    92345.414   0.97182764     10339.62 
 1937000     19495000   -28605.346    252.73406    2259.3033    -30864.65   -29871.892    252.73406    -940.4371    92345.414   0.97182764    10344.421 
 1938000     19505000   -28509.246    260.97028    2332.9306   -30842.176   -30204.785    260.97028   -1258.9737    92345.414   0.97182764    10349.213 
 1939000     19515000   -28642.225    248.66959    2222.9692   -30865.194   -30411.942    248.66959   -1314.0523    92345.414   0.97182764    10354.316 
 1940000     19525000    -28610.96    255.73386    2286.1199    -30897.08   -30869.307    255.73386   -1676.8697    92345.414   0.97182764    10363.258 
 1941000     19535000   -28597.465    258.20582    2308.2179   -30905.683   -30001.067    258.20582   -1042.2042    92345.414   0.97182764    10369.397 
 1942000     19545000   -28729.088     247.2175    2209.9883   -30939.076   -29908.631     247.2175   -875.83583    92345.414   0.97182764    10374.359 
 1943000     19555000   -28625.838    253.34539    2264.7683   -30890.606    -30242.33    253.34539   -1200.2797    92345.414   0.97182764    10379.686 
 1944000     19565000   -28542.687     247.7017    2214.3168   -30757.004   -30214.738     247.7017   -1241.5327    92345.414   0.97182764    10384.462 
 1945000     19575000   -28570.909    257.65907    2303.3302   -30874.239   -30428.235    257.65907   -1379.1035    92345.414   0.97182764     10391.48 
 1946000     19585000   -28626.895    249.52601    2230.6252    -30857.52   -30439.916    249.52601   -1346.2067    92345.414   0.97182764      10396.1 
 1947000     19595000   -28622.673    251.74915    2250.4987   -30873.172   -30060.677    251.74915    -1067.748    92345.414   0.97182764    10401.353 
 1948000     19605000   -28687.947    254.03133    2270.9002   -30958.847    -29908.61    254.03133   -906.36814    92345.414   0.97182764    10406.155 
 1949000     19615000   -28562.707     253.9289    2269.9845   -30832.691   -30373.919     253.9289   -1344.8633    92345.414   0.97182764     10410.92 
 1950000     19625000   -28600.744    254.70682    2276.9387   -30877.682   -30559.564    254.70682   -1454.4653    92345.414   0.97182764    10415.567 
 1951000     19635000   -28655.863    248.27909    2219.4784   -30875.342   -30602.688    248.27909   -1445.5585    92345.414   0.97182764    10420.143 
 1952000     19645000   -28592.758    258.09759    2307.2504   -30900.008   -30358.199    258.09759   -1310.8772    92345.414   0.97182764    10424.695 
 1953000     19655000    -28617.78    247.93798     2216.429   -30834.209   -30313.521    247.93798   -1259.1236    92345.414   0.97182764    10429.321 
 1954000     19665000   -28714.914    248.81449    2224.2645   -30939.179   -30535.578    248.81449   -1351.8814    92345.414   0.97182764    10433.887 
 1955000     19675000   -28644.487    254.02822    2270.8724   -30915.359   -29920.128    254.02822   -947.19002    92345.414   0.97182764    10438.625 
 1956000     19685000   -28566.914    253.67413     2267.707   -30834.621    -30223.84    253.67413   -1230.3021    92345.414   0.97182764    10443.274 
 1957000     19695000   -28608.835    250.69875    2241.1088   -30849.944   -30478.335    250.69875   -1388.1424    92345.414   0.97182764    10447.892 
 1958000     19705000   -28569.747    255.18303    2281.1958   -30850.943   -30357.441    255.18303   -1327.4006    92345.414   0.97182764     10452.49 
 1959000     19715000   -28731.612    254.44238    2274.5748   -31006.187   -30643.353    254.44238   -1419.5074    92345.414   0.97182764     10457.16 
 1960000     19725000   -28622.149     262.2351    2344.2374   -30966.387   -30669.253     262.2351   -1520.0175    92345.414   0.97182764        10462 
 1961000     19735000   -28719.289    256.21482    2290.4194   -31009.708    -30819.96    256.21482   -1559.7924    92345.414   0.97182764    10466.601 
 1962000     19745000   -28562.455    255.19556    2281.3078   -30843.762   -29811.376    255.19556   -927.35048    92345.414   0.97182764    10471.228 
 1963000     19755000   -28636.993     247.6575    2213.9216   -30850.915   -30526.688     247.6575   -1403.1379    92345.414   0.97182764    10475.904 
 1964000     19765000   -28518.303    252.73424     2259.305   -30777.608   -30406.263    252.73424   -1401.8504    92345.414   0.97182764    10481.202 
 1965000     19775000   -28544.243    260.95041     2332.753   -30876.996   -29892.008    260.95041   -1000.7439    92345.414   0.97182764    10485.812 
 1966000     19785000   -28741.792    249.74746    2232.6048   -30974.396   -30658.676    249.74746   -1423.3269    92345.414   0.97182764    10490.395 
 1967000     19795000   -28637.805    248.80425     2224.173   -30861.978   -30245.643    248.80425   -1193.8536    92345.414   0.97182764    10494.941 
 1968000     19805000   -28553.089    252.16754    2254.2389   -30807.328   -30432.586    252.16754   -1395.5661    92345.414   0.97182764    10499.703 
 1969000     19815000   -28582.132    256.38911    2291.9775    -30874.11     -30779.5    256.38911   -1631.5918    92345.414   0.97182764    10504.395 
 1970000     19825000   -28740.038    251.39018    2247.2898   -30987.327   -30314.084    251.39018   -1168.7626    92345.414   0.97182764    10509.003 
 1971000     19835000   -28618.238    252.49878       2257.2   -30875.438   -30826.629    252.49878   -1639.7767    92345.414   0.97182764    10513.546 
 1972000     19845000   -28599.807    251.59693     2249.138   -30848.945   -29911.707    251.59693   -974.11356    92345.414   0.97182764    10518.365 
 1973000     19855000    -28672.98    260.25633    2326.5483   -30999.529   -30409.963    260.25633   -1289.7462    92345.414   0.97182764    10523.009 
 1974000     19865000   -28584.885    251.72678    2250.2988   -30835.184    -30476.93    251.72678   -1404.8837    92345.414   0.97182764    10527.595 
 1975000     19875000   -28562.876    255.24356    2281.7369   -30844.612    -29611.29    255.24356   -778.46944    92345.414   0.97182764    10532.227 
 1976000     19885000   -28695.761    249.95338    2234.4456   -30930.206   -30665.232    249.95338   -1462.3737    92345.414   0.97182764    10536.808 
 1977000     19895000   -28620.957      252.722    2259.1956   -30880.153   -30399.368      252.722   -1320.5072    92345.414   0.97182764    10541.508 
 1978000     19905000   -28661.597      254.607    2276.0464   -30937.643   -30652.844      254.607   -1478.5427    92345.414   0.97182764    10546.135 
 1979000     19915000    -28598.14    254.61617    2276.1283   -30874.269   -29485.431    254.61617     -658.832    92345.414   0.97182764    10550.828 
 1980000     19925000   -28764.765    249.86591    2233.6637   -30998.428    -30233.42    249.86591   -1090.5077    92345.414   0.97182764    10555.518 
 1981000     19935000   -28599.442    253.37815    2265.0611   -30864.504    -30480.43    253.37815   -1396.6726    92345.414   0.97182764    10560.445 
 1982000     19945000   -28752.528    251.76809    2250.6681   -31003.196   -30446.885    251.76809   -1258.0956    92345.414   0.97182764     10566.29 
 1983000     19955000   -28631.909    261.76176     2340.006   -30971.915   -30603.071    261.76176   -1463.6294    92345.414   0.97182764    10571.776 
 1984000     19965000   -28447.772      258.779    2313.3418   -30761.114   -30260.883      258.779   -1346.2731    92345.414   0.97182764    10578.083 
 1985000     19975000   -28624.814     249.5223    2230.5919   -30855.406   -29850.788     249.5223   -910.31191    92345.414   0.97182764    10583.068 
 1986000     19985000   -28634.899    248.52115    2221.6422   -30856.542   -30137.267    248.52115   -1115.5394    92345.414   0.97182764    10587.792 
 1987000     19995000   -28671.853    248.31501    2219.7994   -30891.653   -30191.281    248.31501    -1128.207    92345.414   0.97182764      10592.5 
 1988000     20005000   -28726.904    247.91727    2216.2439   -30943.148   -30083.154    247.91727   -1007.0438    92345.414   0.97182764    10597.045 
 1989000     20015000   -28653.221    251.59885    2249.1552   -30902.377   -30746.198    251.59885   -1554.0791    92345.414   0.97182764    10601.647 
 1990000     20025000   -28809.995     252.9053    2260.8341   -31070.829   -30002.311     252.9053   -885.31993    92345.414   0.97182764    10606.199 
 1991000     20035000   -28688.986    248.39952    2220.5549   -30909.541   -30779.779    248.39952   -1552.4584    92345.414   0.97182764    10610.776 
 1992000     20045000   -28549.114    252.57121    2257.8475   -30806.961   -30329.325    252.57121   -1321.8445    92345.414   0.97182764    10615.493 
 1993000     20055000   -28701.879    246.21696     2201.044   -30902.923   -30529.859    246.21696   -1357.3137    92345.414   0.97182764    10620.044 
 1994000     20065000   -28596.984    259.87394    2323.1299   -30920.114   -30532.329    259.87394   -1437.0346    92345.414   0.97182764    10624.767 
 1995000     20075000   -28593.538     255.4456     2283.543   -30877.081    -30750.89     255.4456   -1601.8796    92345.414   0.97182764    10629.369 
 1996000     20085000   -28538.241    258.25532    2308.6604   -30846.902   -30495.079    258.25532   -1452.9931    92345.414   0.97182764     10633.91 
 1997000     20095000   -28552.851    254.55998    2275.6261   -30828.478   -30269.922    254.55998   -1274.9614    92345.414   0.97182764    10638.535 
 1998000     20105000   -28579.378    258.36098    2309.6049   -30888.983   -30729.201    258.36098   -1596.2884    92345.414   0.97182764    10643.135 
 1999000     20115000   -28719.289    248.66994    2222.9724   -30942.261   -30399.116    248.66994   -1247.3072    92345.414   0.97182764    10647.919 
 2000000     20125000   -28679.764    252.07251    2253.3894   -30933.154   -30951.192    252.07251   -1686.5827    92345.414   0.97182764     10652.61 
Loop time of 10652.6 on 2 procs for 2000000 steps with 3000 atoms

Performance: 162.214 ns/day, 0.148 hours/ns, 187.747 timesteps/s
93.2% CPU use with 2 MPI tasks x no OpenMP threads

MPI task timing breakdown:
Section |  min time  |  avg time  |  max time  |%varavg| %total
---------------------------------------------------------------
Pair    | 9467.3     | 9503.9     | 9540.4     |  37.5 | 89.22
Neigh   | 565.38     | 565.43     | 565.48     |   0.2 |  5.31
Comm    | 449.53     | 486.14     | 522.76     | 166.1 |  4.56
Output  | 1.2121     | 1.2814     | 1.3508     |   6.1 |  0.01
Modify  | 82.052     | 82.066     | 82.081     |   0.2 |  0.77
Other   |            | 13.83      |            |       |  0.13

Nlocal:    1500 ave 1506 max 1494 min
Histogram: 1 0 0 0 0 0 0 0 0 1
Nghost:    2230.5 ave 2245 max 2216 min
Histogram: 1 0 0 0 0 0 0 0 0 1
Neighs:    0 ave 0 max 0 min
Histogram: 2 0 0 0 0 0 0 0 0 0
FullNghs:  44203 ave 44222 max 44184 min
Histogram: 1 0 0 0 0 0 0 0 0 1

Total # of neighbors = 88406
Ave neighs/atom = 29.4687
Neighbor list builds = 200000
Dangerous builds = 200000

Total wall time: 2:59:38
