LAMMPS (11 Aug 2017)
####################################################################################
# External variables that have to be passed on call
# Temperature 	= temperature of the system
# trjFile	= name of the .xtc trajectory file
# dataFile	= name of the .data input for Lammps
# nRand		= random number as seed for the velocity creation
# Timestep	= timestep in fs
# Eps		= LJ epsilon of mW C interaction
# Sigma		= LJ epsilon of mW C interaction
# nTimesteps	= number of timesteps to run
# nStride       = stride of thermo and trajectory output
# pass variables to the script via ${variable_name}
#####################################################################################

units real
dimension 3
newton on
processors * * *
boundary p p p
atom_style atomic
box tilt large
read_data liq.data
  orthogonal box = (-0.005 0.0045 0.008999) to (45.195 45.2045 45.209)
  1 by 1 by 2 MPI processor grid
  reading atoms ...
  3000 atoms


###################### MASS ######################

mass 1 18.015


###################### GROUPS ######################

group mW type 1
3000 atoms in group mW


###################### INTERACTIONS ######################

pair_style sw  # stilinger-weber potl
pair_coeff * * mW-mW.sw mW


###################### INTERACTIONS ######################

neighbor 2.0 bin
timestep ${Timestep}
timestep 10
min_style cg
run_style verlet


###################### COMPUTES ######################

compute mWtemp mW temp
thermo $(v_psStride*1000/v_Timestep)
thermo 500
thermo_style custom step time etotal c_mWtemp ke pe enthalpy temp press vol density cpu
thermo_modify flush yes


###################### FIX ######################

#fix wallz mW wall/lj93 zlo 0.001 0.5 2 5
#fix_modify wallz energy yes


###################### RUNNING ######################

dump d1 all xtc $(v_psStride*1000/v_Timestep) ${trjFile}
dump d1 all xtc 500 ${trjFile}
dump d1 all xtc 500 333-243/trj.xtc


###################### MINIMIZATION ######################

minimize 1e-13 1e-15 5000 50000
WARNING: Using 'neigh_modify every 1 delay 0 check yes' setting during minimization (../min.cpp:168)
Neighbor list info ...
  update every 1 steps, delay 0 steps, check yes
  max neighbors/atom: 2000, page size: 100000
  master list distance cutoff = 6.09869
  ghost atom cutoff = 6.09869
  binsize = 3.04935, bins = 15 15 15
  1 neighbor lists, perpetual/occasional/extra = 1 0 0
  (1) pair sw, perpetual
      attributes: full, newton on
      pair build: full/bin/atomonly
      stencil: full/bin/3d
      bin: standard
Per MPI rank memory allocation (min/avg/max) = 4.117 | 4.118 | 4.119 Mbytes
Step Time TotEng c_mWtemp KinEng PotEng Enthalpy Temp Press Volume Density CPU 
       0            0    1081442.9            0            0    1081442.9    2680077.2            0    1187019.7    92345.414   0.97182764            0 
     500         5000   -33648.094            0            0   -33648.094   -35297.219            0   -1224.5093    92345.414   0.97182764     4.040355 
     593         5930   -33651.026            0            0   -33651.026    -35278.87            0   -1208.7086    92345.414   0.97182764     5.231274 
Loop time of 5.23131 on 2 procs for 593 steps with 3000 atoms

89.7% CPU use with 2 MPI tasks x no OpenMP threads

Minimization stats:
  Stopping criterion = linesearch alpha is zero
  Energy initial, next-to-last, final = 
         1081442.87387     -33651.0257623     -33651.0257623
  Force two-norm initial, final = 5.79938e+06 0.0752938
  Force max component initial, final = 2.35806e+06 0.0170692
  Final line search alpha, max atom move = 1.90735e-06 3.25569e-08
  Iterations, force evaluations = 593 920

MPI task timing breakdown:
Section |  min time  |  avg time  |  max time  |%varavg| %total
---------------------------------------------------------------
Pair    | 4.4516     | 4.6634     | 4.8752     |   9.8 | 89.14
Neigh   | 0.099458   | 0.10159    | 0.10372    |   0.7 |  1.94
Comm    | 0.17858    | 0.39235    | 0.60611    |  34.1 |  7.50
Output  | 0.000467   | 0.000483   | 0.000499   |   0.0 |  0.01
Modify  | 0          | 0          | 0          |   0.0 |  0.00
Other   |            | 0.07349    |            |       |  1.40

Nlocal:    1500 ave 1518 max 1482 min
Histogram: 1 0 0 0 0 0 0 0 0 1
Nghost:    2238.5 ave 2251 max 2226 min
Histogram: 1 0 0 0 0 0 0 0 0 1
Neighs:    0 ave 0 max 0 min
Histogram: 2 0 0 0 0 0 0 0 0 0
FullNghs:  43339 ave 44415 max 42263 min
Histogram: 1 0 0 0 0 0 0 0 0 1

Total # of neighbors = 86678
Ave neighs/atom = 28.8927
Neighbor list builds = 31
Dangerous builds = 0


###################### VELOCITIES ######################

velocity mW create ${T0} ${nRand} dist gaussian mom yes rot yes
velocity mW create 333 ${nRand} dist gaussian mom yes rot yes
velocity mW create 333 9274 dist gaussian mom yes rot yes


###################### EQUILIBRATION ######################

timestep $(v_Timestep/2)
timestep 5
fix f1 mW nvt temp ${T0} ${T0} $(100*v_Timestep/2) tchain 10
fix f1 mW nvt temp 333 ${T0} $(100*v_Timestep/2) tchain 10
fix f1 mW nvt temp 333 333 $(100*v_Timestep/2) tchain 10
fix f1 mW nvt temp 333 333 500 tchain 10
fix_modify f1 temp mWtemp
WARNING: Temperature for fix modify is not for group all (../fix_nh.cpp:1395)
run $(500*1000/v_Timestep/2)
run 25000
Per MPI rank memory allocation (min/avg/max) = 2.994 | 2.994 | 2.995 Mbytes
Step Time TotEng c_mWtemp KinEng PotEng Enthalpy Temp Press Volume Density CPU 
     593            0   -30674.189          333    2976.8366   -33651.026   -30317.476          333    264.86733    92345.414   0.97182764            0 
    1000         2035   -29774.258     211.7634    1893.0482   -31667.307   -30886.457     211.7634   -825.83057    92345.414   0.97182764     1.970407 
    1500         4535   -28608.846    266.27904     2380.388   -30989.234   -29933.546    266.27904   -983.61769    92345.414   0.97182764      4.70187 
    2000         7035   -27581.917    297.42267    2658.7949   -30240.712   -28801.293    297.42267   -905.41231    92345.414   0.97182764     7.499574 
    2500         9535   -26848.252    323.66066    2893.3481     -29741.6   -27171.563    323.66066   -240.06539    92345.414   0.97182764    10.867634 
    3000        12035   -26740.786    331.75669    2965.7221   -29706.508   -27918.747    331.75669    -874.6606    92345.414   0.97182764    14.194448 
    3500        14535   -26633.659     335.4285    2998.5461   -29632.205   -27370.737     335.4285   -547.29582    92345.414   0.97182764     19.74406 
    4000        17035   -26584.643    333.19164    2978.5498   -29563.193   -27489.221    333.19164   -671.66788    92345.414   0.97182764     23.32085 
    4500        19535     -26634.4    342.05856    3057.8152   -29692.215   -27511.561    342.05856   -651.31101    92345.414   0.97182764    25.727245 
    5000        22035   -26773.674    328.82441    2939.5092   -29713.183   -27656.065    328.82441   -655.19357    92345.414   0.97182764    28.313679 
    5500        24535   -26790.753    328.12367    2933.2449   -29723.998   -28203.471    328.12367   -1048.9731    92345.414   0.97182764    31.814696 
    6000        27035   -26726.565    332.88682    2975.8248    -29702.39   -27707.962    332.88682   -728.70854    92345.414   0.97182764    36.589941 
    6500        29535   -26641.016    336.49988    3008.1236    -29649.14   -28046.619    336.49988   -1043.6897    92345.414   0.97182764    40.642125 
    7000        32035   -26620.827    330.97142    2958.7023   -29579.529   -27797.677    330.97142   -873.83636    92345.414   0.97182764    43.261809 
    7500        34535   -26552.802    338.80393    3028.7205   -29581.523   -27133.999    338.80393   -431.55051    92345.414   0.97182764    45.898867 
    8000        37035   -26619.168    336.00443    3003.6946   -29622.863   -27130.218    336.00443   -379.46481    92345.414   0.97182764    48.464425 
    8500        39535   -26730.005    328.45336    2936.1921   -29666.197   -27698.541    328.45336   -719.15879    92345.414   0.97182764    51.020873 
    9000        42035   -26673.104    329.48952    2945.4549   -29618.559   -28180.607    329.48952   -1119.3529    92345.414   0.97182764    54.109164 
    9500        44535   -26644.786    333.57424      2981.97   -29626.756   -27756.179    333.57424   -825.23256    92345.414   0.97182764    57.493445 
   10000        47035   -26649.708    334.41084    2989.4487   -29639.157   -27463.602    334.41084   -604.33327    92345.414   0.97182764    60.677226 
   10500        49535   -26623.262    333.29595    2979.4823   -29602.745   -27699.333    333.29595   -799.00513    92345.414   0.97182764    63.943009 
   11000        52035   -26694.437    330.37595    2953.3791   -29647.816    -27990.58    330.37595   -962.41399    92345.414   0.97182764     66.87232 
   11500        54535   -26676.818    337.62329    3018.1663   -29694.985   -27574.244    337.62329   -666.35734    92345.414   0.97182764    69.676249 
   12000        57035    -26544.63    334.32282    2988.6619   -29533.292   -28388.486    334.32282   -1369.1022    92345.414   0.97182764    72.237509 
   12500        59535   -26525.161    338.03015    3021.8034   -29546.965   -28256.773    338.03015   -1285.7582    92345.414   0.97182764    74.804676 
   13000        62035   -26722.943    332.50395    2972.4022   -29695.345   -28037.494    332.50395   -976.08234    92345.414   0.97182764    77.393457 
   13500        64535   -26692.534    330.29964    2952.6969   -29645.231     -27450.8    330.29964   -563.02826    92345.414   0.97182764    80.118634 
   14000        67035   -26589.207    337.36999     3015.902   -29605.109   -27756.099    337.36999   -866.44163    92345.414   0.97182764    82.644276 
   14500        69535   -26605.506    330.24147    2952.1769   -29557.683    -27549.27    330.24147   -700.76416    92345.414   0.97182764    85.212916 
   15000        72035   -26602.818    334.99827    2994.7001   -29597.518   -27282.153    334.99827    -504.4202    92345.414   0.97182764    87.736203 
   15500        74535   -26747.408    329.53328    2945.8461   -29693.254   -27905.266    329.53328   -859.73426    92345.414   0.97182764    90.233394 
   16000        77035   -26698.478    329.30252    2943.7832   -29642.261   -27597.573    329.30252   -667.59746    92345.414   0.97182764    92.803134 
   16500        79535   -26662.559    330.41975    2953.7706    -29616.33   -27755.561    330.41975   -811.57713    92345.414   0.97182764    95.363064 
   17000        82035   -26494.418     340.5552     3044.376   -29538.794   -27993.888     340.5552   -1113.3882    92345.414   0.97182764    97.979507 
   17500        84535   -26589.704    335.23751    2996.8387   -29586.543    -27215.21    335.23751   -464.45128    92345.414   0.97182764    100.75046 
   18000        87035   -26697.982    327.19034    2924.9015   -29622.884   -27613.227    327.19034   -679.58871    92345.414   0.97182764    103.34749 
   18500        89535   -26678.878    323.14914    2888.7754   -29567.653   -27683.395    323.14914   -745.87511    92345.414   0.97182764    105.91515 
   19000        92035   -26690.299     331.3231    2961.8461   -29652.145   -28225.653     331.3231   -1140.0329    92345.414   0.97182764    108.43357 
   19500        94535   -26667.821    335.14453    2996.0076   -29663.829   -27099.061    335.14453   -320.20491    92345.414   0.97182764    110.97223 
   20000        97035   -26636.778    337.96813    3021.2489   -29658.027   -28170.073    337.96813   -1138.5042    92345.414   0.97182764    113.52178 
   20500        99535   -26674.771    329.21447    2942.9961   -29617.767   -27493.498    329.21447   -607.92178    92345.414   0.97182764    116.12073 
   21000       102035   -26635.592    334.90289    2993.8474   -29629.439   -27521.745    334.90289   -657.98753    92345.414   0.97182764    118.78739 
   21500       104535   -26657.672    336.00498    3003.6995   -29661.371   -27541.421    336.00498   -656.20226    92345.414   0.97182764    121.35202 
   22000       107035   -26607.097     338.5466    3026.4201   -29633.517   -27746.603     338.5466   -846.10708    92345.414   0.97182764     123.8967 
   22500       109535   -26649.701     331.9892    2967.8007   -29617.501   -28129.115     331.9892   -1098.4964    92345.414   0.97182764    126.41498 
   23000       112035   -26648.605    338.18823    3023.2165   -29671.821   -28155.712    338.18823   -1119.0589    92345.414   0.97182764    129.13231 
   23500       114535   -26682.066    327.24929    2925.4284   -29607.495   -27605.361    327.24929    -685.5656    92345.414   0.97182764    131.69098 
   24000       117035   -26609.323    334.64333    2991.5271    -29600.85    -27845.48    334.64333   -917.87252    92345.414   0.97182764    134.24075 
   24500       119535    -26556.59    341.60351    3053.7473   -29610.337       -27134    341.60351    -428.7395    92345.414   0.97182764    136.81079 
   25000       122035   -26583.261    336.30757    3006.4045   -29589.666   -27841.905    336.30757   -934.56961    92345.414   0.97182764    139.44037 
   25500       124535   -26668.989    329.02845    2941.3332   -29610.322    -27866.62    329.02845   -889.26647    92345.414   0.97182764    141.98914 
   25593       125000   -26634.714    333.24747    2979.0489   -29613.763   -28043.073    333.24747   -1045.7361    92345.414   0.97182764    142.47408 
Loop time of 142.474 on 2 procs for 25000 steps with 3000 atoms

Performance: 75.803 ns/day, 0.317 hours/ns, 175.470 timesteps/s
92.6% CPU use with 2 MPI tasks x no OpenMP threads

MPI task timing breakdown:
Section |  min time  |  avg time  |  max time  |%varavg| %total
---------------------------------------------------------------
Pair    | 128.85     | 128.97     | 129.09     |   1.1 | 90.52
Neigh   | 5.5361     | 5.5541     | 5.5721     |   0.8 |  3.90
Comm    | 6.375      | 6.4486     | 6.5223     |   2.9 |  4.53
Output  | 0.028993   | 0.030411   | 0.031829   |   0.8 |  0.02
Modify  | 1.1596     | 1.192      | 1.2244     |   3.0 |  0.84
Other   |            | 0.2791     |            |       |  0.20

Nlocal:    1500 ave 1505 max 1495 min
Histogram: 1 0 0 0 0 0 0 0 0 1
Nghost:    2236 ave 2247 max 2225 min
Histogram: 1 0 0 0 0 0 0 0 0 1
Neighs:    0 ave 0 max 0 min
Histogram: 2 0 0 0 0 0 0 0 0 0
FullNghs:  44400 ave 44413 max 44387 min
Histogram: 1 0 0 0 0 0 0 0 0 1

Total # of neighbors = 88800
Ave neighs/atom = 29.6
Neighbor list builds = 1905
Dangerous builds = 12


###################### RUN ######################

unfix f1
fix f2 mW nvt temp ${T0} ${T1} $(100*v_Timestep) tchain 10
fix f2 mW nvt temp 333 ${T1} $(100*v_Timestep) tchain 10
fix f2 mW nvt temp 333 243 $(100*v_Timestep) tchain 10
fix f2 mW nvt temp 333 243 1000 tchain 10
fix_modify f2 temp mWtemp
WARNING: Temperature for fix modify is not for group all (../fix_nh.cpp:1395)

reset_timestep 0
run 0
Per MPI rank memory allocation (min/avg/max) = 3.002 | 3.002 | 3.002 Mbytes
Step Time TotEng c_mWtemp KinEng PotEng Enthalpy Temp Press Volume Density CPU 
       0       125000   -26634.714    333.24747    2979.0489   -29613.763   -28043.073    333.24747   -1045.7361    92345.414   0.97182764            0 
Loop time of 3e-06 on 2 procs for 0 steps with 3000 atoms

83.3% CPU use with 2 MPI tasks x no OpenMP threads

MPI task timing breakdown:
Section |  min time  |  avg time  |  max time  |%varavg| %total
---------------------------------------------------------------
Pair    | 0          | 0          | 0          |   0.0 |  0.00
Neigh   | 0          | 0          | 0          |   0.0 |  0.00
Comm    | 0          | 0          | 0          |   0.0 |  0.00
Output  | 0          | 0          | 0          |   0.0 |  0.00
Modify  | 0          | 0          | 0          |   0.0 |  0.00
Other   |            | 3e-06      |            |       |100.00

Nlocal:    1500 ave 1506 max 1494 min
Histogram: 1 0 0 0 0 0 0 0 0 1
Nghost:    2247 ave 2263 max 2231 min
Histogram: 1 0 0 0 0 0 0 0 0 1
Neighs:    0 ave 0 max 0 min
Histogram: 2 0 0 0 0 0 0 0 0 0
FullNghs:  44360 ave 44498 max 44222 min
Histogram: 1 0 0 0 0 0 0 0 0 1

Total # of neighbors = 88720
Ave neighs/atom = 29.5733
Neighbor list builds = 0
Dangerous builds = 0

timestep ${Timestep}
timestep 10
run $(v_nsRunTime*1000000/v_Timestep)
run 500000
Per MPI rank memory allocation (min/avg/max) = 3.002 | 3.002 | 3.002 Mbytes
Step Time TotEng c_mWtemp KinEng PotEng Enthalpy Temp Press Volume Density CPU 
       0       125000   -26634.714    333.24747    2979.0489   -29613.763   -28043.073    333.24747   -1045.7361    92345.414   0.97182764            0 
     500       130000   -26575.538    341.69263     3054.544   -29630.082   -27683.955    341.69263   -823.02317    92345.414   0.97182764       2.6163 
    1000       135000    -26504.86    342.36676    3060.5703   -29565.431   -27788.676    342.36676   -953.26016    92345.414   0.97182764     5.210223 
    1500       140000   -26631.937    336.88152    3011.5353   -29643.472    -28017.04    336.88152   -1028.4683    92345.414   0.97182764     7.789238 
    2000       145000   -26700.286    324.45865    2900.4816   -29600.768   -27936.426    324.45865   -917.85957    92345.414   0.97182764    10.362361 
    2500       150000   -26720.199    331.48988     2963.337   -29683.536   -28045.431    331.48988   -984.01299    92345.414   0.97182764    12.946498 
    3000       155000   -26652.657    332.73109    2974.4327    -29627.09   -27546.138    332.73109   -663.42863    92345.414   0.97182764    15.865891 
    3500       160000   -26585.749    331.94756    2967.4284   -29553.178   -27670.654    331.94756   -805.56489    92345.414   0.97182764    19.005771 
    4000       165000   -26653.267    328.63679     2937.832   -29591.099   -27914.732    328.63679   -936.66487    92345.414   0.97182764    22.086539 
    4500       170000   -26391.563    339.88392    3038.3751   -29429.938   -27255.141    339.88392   -641.22489    92345.414   0.97182764    25.145938 
    5000       175000   -26617.782    334.56498    2990.8267   -29608.609   -27370.143    334.56498   -558.64354    92345.414   0.97182764    28.109326 
    5500       180000   -26611.879    333.29048    2979.4334   -29591.313   -27477.725    333.29048   -642.90865    92345.414   0.97182764    31.393342 
    6000       185000   -26729.635    330.49969    2954.4852    -29684.12   -27688.035    330.49969   -711.63232    92345.414   0.97182764    34.044853 
    6500       190000   -26736.073      319.578    2856.8513   -29592.924   -27540.536      319.578   -597.33068    92345.414   0.97182764    36.603828 
    7000       195000   -26642.246    330.81657     2957.318   -29599.564   -27964.404    330.81657   -981.73012    92345.414   0.97182764    39.195962 
    7500       200000   -26559.887    344.94203    3083.5918   -29643.479   -27685.087    344.94203    -835.4849    92345.414   0.97182764    41.760484 
    8000       205000   -26508.632    333.52631    2981.5415   -29490.173   -27258.785    333.52631   -557.00485    92345.414   0.97182764     44.33695 
    8500       210000   -26636.739    325.11892    2906.3841   -29543.123   -27393.255    325.11892   -561.72933    92345.414   0.97182764    47.054692 
    9000       215000    -26688.05    329.83777     2948.568   -29636.618   -27596.046    329.83777   -674.20561    92345.414   0.97182764    49.619697 
    9500       220000   -26596.855    336.66495    3009.5993   -29606.454   -27624.164    336.66495   -762.79844    92345.414   0.97182764    52.243096 
   10000       225000   -26552.669     327.7095    2929.5425   -29482.211   -27352.947     327.7095   -594.22317    92345.414   0.97182764    54.861772 
   10500       230000   -26583.175    336.92049    3011.8837   -29595.059    -27941.84    336.92049   -1008.8373    92345.414   0.97182764    57.466323 
   11000       235000   -26691.691    327.65936    2929.0942   -29620.785   -27650.873    327.65936    -712.2129    92345.414   0.97182764    60.707166 
   11500       240000   -26736.268    338.15627    3022.9308   -29759.199   -28034.494    338.15627   -963.95996    92345.414   0.97182764      63.5097 
   12000       245000   -26624.371    335.85658    3002.3729   -29626.744   -27399.853    335.85658   -575.81159    92345.414   0.97182764    66.087899 
   12500       250000   -26586.465    333.46331    2980.9784   -29567.443   -27152.724    333.46331   -420.45941    92345.414   0.97182764    68.655062 
   13000       255000   -26655.709    329.24885    2943.3034   -29599.013   -28152.701    329.24885   -1111.5476    92345.414   0.97182764    71.240412 
   13500       260000   -26732.922    327.80762    2930.4196   -29663.341   -28250.755    327.80762   -1127.0232    92345.414   0.97182764    74.157243 
   14000       265000   -26613.029    329.51934    2945.7214    -29558.75   -26669.257    329.51934   -41.750948    92345.414   0.97182764    76.935051 
   14500       270000   -26561.841    331.74595    2965.6261   -29527.467   -27385.728    331.74595   -611.75363    92345.414   0.97182764    79.493097 
   15000       275000   -26624.643    329.24394    2943.2595   -29567.902   -27628.808    329.24394   -745.61372    92345.414   0.97182764    82.098942 
   15500       280000   -26671.846    331.95336    2967.4802   -29639.326    -28022.55    331.95336   -1002.9263    92345.414   0.97182764    84.712869 
   16000       285000   -26671.863    334.12339    2986.8791   -29658.742    -27027.97    334.12339   -264.41689    92345.414   0.97182764    87.306331 
   16500       290000   -26597.899    329.79321    2948.1697   -29546.068   -27326.529    329.79321   -541.02319    92345.414   0.97182764    89.882739 
   17000       295000   -26784.646    326.49843    2918.7161   -29703.362   -27844.214    326.49843   -786.75133    92345.414   0.97182764    92.510465 
   17500       300000   -26665.676    340.79044    3046.4789   -29712.154   -27921.373    340.79044   -932.38187    92345.414   0.97182764    95.134504 
   18000       305000   -26641.191    331.63411    2964.6263   -29605.817   -28009.218    331.63411   -1015.7887    92345.414   0.97182764    97.732161 
   18500       310000   -26800.203    330.98534    2958.8267    -29759.03    -28328.47    330.98534   -1134.7699    92345.414   0.97182764    100.27195 
   19000       315000   -26726.284    325.69445     2911.529   -29637.813   -28085.043    325.69445   -1008.9071    92345.414   0.97182764    103.00368 
   19500       320000   -26673.866    328.02152    2932.3318   -29606.198   -27587.422    328.02152   -678.33442    92345.414   0.97182764    105.70666 
   20000       325000    -26609.11    345.58038    3089.2983   -29698.408   -27640.151    345.58038   -765.57017    92345.414   0.97182764    108.39544 
   20500       330000   -26609.944     340.5252    3044.1078   -29654.052   -27353.568     340.5252   -552.15628    92345.414   0.97182764    110.97281 
   21000       335000   -26709.876    332.04584    2968.3069   -29678.183   -27886.964    332.04584   -874.01289    92345.414   0.97182764    113.60423 
   21500       340000    -26818.09    320.62447    2866.2062   -29684.296   -27818.689    320.62447   -742.96563    92345.414   0.97182764    116.18996 
   22000       345000    -26695.99    326.71897    2920.6877   -29616.677   -28104.153    326.71897   -1045.5907    92345.414   0.97182764    118.79104 
   22500       350000   -26692.872    328.90047    2940.1891   -29633.061   -27622.347    328.90047    -690.1545    92345.414   0.97182764    121.34503 
   23000       355000    -26761.36     327.2953    2925.8397     -29687.2   -28151.827     327.2953   -1032.4507    92345.414   0.97182764    123.94609 
   23500       360000   -26774.486    324.97231    2905.0735   -29679.559   -28053.947    324.97231   -950.02713    92345.414   0.97182764    126.54148 
   24000       365000   -26740.955    326.65711    2920.1347    -29661.09   -27812.005    326.65711   -795.27699    92345.414   0.97182764    129.13677 
   24500       370000    -26606.79    324.37903    2899.7699    -29506.56    -27052.45    324.37903   -330.91215    92345.414   0.97182764    131.71539 
   25000       375000   -26657.284    324.01671     2896.531   -29553.815   -27878.144    324.01671   -906.51413    92345.414   0.97182764    134.34726 
   25500       380000   -26715.752     328.4052    2935.7617   -29651.513   -27822.006     328.4052   -821.41733    92345.414   0.97182764    136.93766 
   26000       385000   -26789.925    324.79453    2903.4842   -29693.409   -27702.575    324.79453   -677.66239    92345.414   0.97182764    139.63668 
   26500       390000   -26815.455    324.67943    2902.4553    -29717.91   -27701.555    324.67943   -657.94836    92345.414   0.97182764    142.32363 
   27000       395000   -26709.953    318.25306    2845.0071    -29554.96   -27953.626    318.25306   -923.45362    92345.414   0.97182764    144.94682 
   27500       400000    -26749.94    321.42761    2873.3858   -29623.326   -28311.361    321.42761   -1159.3879    92345.414   0.97182764    147.56949 
   28000       405000    -26842.15    313.88662    2805.9735   -29648.123   -28634.117    313.88662   -1330.5738    92345.414   0.97182764    150.15231 
   28500       410000   -26763.246    328.96778    2940.7908   -29704.037   -28272.883    328.96778   -1120.9375    92345.414   0.97182764    152.72563 
   29000       415000   -26747.273    321.55513    2874.5258   -29621.799   -28164.392    321.55513   -1052.2407    92345.414   0.97182764    155.30232 
   29500       420000   -26638.563    323.55021    2892.3607   -29530.923   -28240.641    323.55021   -1189.5769    92345.414   0.97182764    157.88014 
   30000       425000   -26671.305    332.97422    2976.6062   -29647.911   -27976.798    332.97422    -969.3566    92345.414   0.97182764     160.4497 
   30500       430000   -26843.716    317.83563    2841.2755   -29684.991   -27913.879    317.83563   -794.61881    92345.414   0.97182764    163.58204 
   31000       435000   -26693.094    331.39952    2962.5292   -29655.624   -27335.428    331.39952   -476.94644    92345.414   0.97182764    167.60612 
   31500       440000   -26818.035    322.32759    2881.4311   -29699.466   -27979.749    322.32759    -862.5967    92345.414   0.97182764     170.4028 
   32000       445000    -26593.65    335.08751    2995.4978   -29589.148   -27781.759    335.08751   -882.19644    92345.414   0.97182764      173.202 
   32500       450000   -26780.671    322.65985    2884.4014   -29665.072   -27757.738    322.65985   -725.49328    92345.414   0.97182764    176.41222 
   33000       455000   -26778.913    322.71026     2884.852   -29663.765   -28285.692    322.71026   -1118.8154    92345.414   0.97182764    179.28294 
   33500       460000   -26740.415    320.84858    2868.2096   -29608.625   -28295.961    320.84858   -1155.0255    92345.414   0.97182764    183.03885 
   34000       465000   -26707.895    331.74875    2965.6512   -29673.546   -27541.322    331.74875   -618.83727    92345.414   0.97182764    185.80184 
   34500       470000   -26674.682      335.238    2996.8431   -29671.525   -28151.747      335.238    -1096.752    92345.414   0.97182764    188.39118 
   35000       475000   -26755.803    328.18933    2933.8319   -29689.635   -27311.199    328.18933   -412.39312    92345.414   0.97182764    190.97657 
   35500       480000   -26747.514    323.56285    2892.4737   -29639.987   -28013.739    323.56285   -940.19888    92345.414   0.97182764    193.61819 
   36000       485000   -26834.874    323.56471    2892.4903   -29727.365    -27529.93    323.56471   -516.09323    92345.414   0.97182764    196.19575 
   36500       490000   -26753.775     315.9679     2824.579   -29578.354   -28739.381     315.9679   -1474.3544    92345.414   0.97182764    198.76157 
   37000       495000   -26665.156    332.65016    2973.7092   -29638.865   -28286.039    332.65016   -1203.5399    92345.414   0.97182764    201.34313 
   37500       500000   -26619.755    333.25017     2979.073   -29598.828   -27001.728    333.25017   -283.62253    92345.414   0.97182764    204.44081 
   38000       505000   -26840.235    327.28991    2925.7916   -29766.027   -28169.429    327.28991   -986.95431    92345.414   0.97182764    207.62533 
   38500       510000   -26854.259    316.94577    2833.3206    -29687.58   -27861.213    316.94577   -747.68487    92345.414   0.97182764    211.21888 
   39000       515000   -26751.354    327.10776    2924.1632   -29675.517   -28091.209    327.10776   -994.87079    92345.414   0.97182764    214.07728 
   39500       520000   -26668.649     333.0033    2976.8661   -29645.515   -28189.885     333.0033   -1129.5499    92345.414   0.97182764    216.71265 
   40000       525000   -26682.666    323.66712    2893.4058   -29576.071   -28154.912    323.66712   -1093.1741    92345.414   0.97182764    219.42622 
   40500       530000   -26695.763    325.70455    2911.6193   -29607.382   -27228.844    325.70455    -395.8236    92345.414   0.97182764    222.05807 
   41000       535000   -26804.393     327.5248    2927.8913   -29732.284   -27842.573     327.5248   -770.87079    92345.414   0.97182764     225.3444 
   41500       540000   -26894.764    322.93496    2886.8607   -29781.625   -27667.423    322.93496   -573.71527    92345.414   0.97182764    228.39901 
   42000       545000   -26789.732    321.81776    2876.8735   -29666.605   -28656.577    321.81776   -1386.1723    92345.414   0.97182764     231.0846 
   42500       550000    -26861.81    316.22469    2826.8746   -29688.684   -28284.936    316.22469   -1056.7016    92345.414   0.97182764     234.0588 
   43000       555000   -26722.961    323.93975     2895.843   -29618.804   -28396.397    323.93975   -1242.5612    92345.414   0.97182764    237.17354 
   43500       560000   -26793.885    324.75378    2903.1199   -29697.005   -27944.358    324.75378   -854.25029    92345.414   0.97182764    240.21506 
   44000       565000   -26776.791    318.96978    2851.4142   -29628.205   -27636.345    318.96978   -638.23733    92345.414   0.97182764    243.29674 
   44500       570000   -26751.087    327.99583    2932.1021   -29683.189   -27602.164    327.99583   -631.94229    92345.414   0.97182764    246.12634 
   45000       575000    -26709.16    322.75018    2885.2089   -29594.369   -27715.536    322.75018   -747.25521    92345.414   0.97182764    248.94334 
   45500       580000   -26821.411    322.68608    2884.6359   -29706.046   -28035.552    322.68608   -901.52556    92345.414   0.97182764    251.63511 
   46000       585000   -26849.209    314.26372    2809.3446   -29658.554   -27854.296    314.26372    -746.2985    92345.414   0.97182764    254.43202 
   46500       590000   -26868.314    316.83273    2832.3102   -29700.625   -28283.155    316.83273   -1050.5492    92345.414   0.97182764    257.23592 
   47000       595000   -26755.698    322.66112    2884.4127   -29640.111   -27931.987    322.66112   -873.41924    92345.414   0.97182764    260.05802 
   47500       600000   -26770.237    321.28985    2872.1543   -29642.391   -27771.833    321.28985   -743.70614    92345.414   0.97182764    262.82739 
   48000       605000   -26838.531    318.84581     2850.306   -29688.837   -27750.084    318.84581   -676.84757    92345.414   0.97182764    265.66177 
   48500       610000   -26855.007    326.66837    2920.2354   -29775.243   -27981.721    326.66837   -836.60837    92345.414   0.97182764    268.52833 
   49000       615000   -26821.767    326.96277    2922.8671   -29744.634   -28124.263    326.96277   -967.13109    92345.414   0.97182764    271.25917 
   49500       620000   -26731.128    326.97216     2922.951   -29654.079   -28190.052    326.97216   -1083.2819    92345.414   0.97182764      273.999 
   50000       625000   -26801.721     327.6434    2928.9516   -29730.672   -27756.218     327.6434   -708.73417    92345.414   0.97182764    276.97479 
   50500       630000   -26881.654    325.41967    2909.0726   -29790.727   -28197.825    325.41967   -977.28412    92345.414   0.97182764    279.79672 
   51000       635000   -26774.507    328.63967    2937.8577   -29712.365   -27839.189    328.63967   -790.54924    92345.414   0.97182764    282.54535 
   51500       640000   -26758.593    330.03741    2950.3527   -29708.946    -27775.32    330.03741   -754.94107    92345.414   0.97182764    285.26591 
   52000       645000   -26945.637    314.85498    2814.6301   -29760.267   -28454.642    314.85498   -1120.4681    92345.414   0.97182764    288.11206 
   52500       650000   -26759.604    326.59482    2919.5778   -29679.181   -27178.498    326.59482   -311.03772    92345.414   0.97182764    290.74603 
   53000       655000   -26806.678      330.331    2952.9773   -29759.655   -28638.328      330.331    -1360.039    92345.414   0.97182764    293.55483 
   53500       660000   -26940.975    312.78395    2796.1163   -29737.091   -28185.628    312.78395   -924.18091    92345.414   0.97182764    296.26546 
   54000       665000   -26946.301    315.76102    2822.7297   -29769.031   -28093.356    315.76102   -851.71234    92345.414   0.97182764    298.96574 
   54500       670000    -26805.26    314.81697    2814.2904    -29619.55   -27689.592    314.81697   -656.63554    92345.414   0.97182764    301.66037 
   55000       675000   -26916.896    314.32921      2809.93   -29726.826   -28200.854    314.32921   -953.36559    92345.414   0.97182764    304.37849 
   55500       680000   -26874.784    317.73682    2840.3922   -29715.176   -27742.676    317.73682    -644.4279    92345.414   0.97182764    307.07725 
   56000       685000   -26764.562    323.38522    2890.8858   -29655.448   -28034.381    323.38522   -942.86748    92345.414   0.97182764    309.81577 
   56500       690000   -26789.134    323.86966    2895.2164    -29684.35   -28026.063    323.86966   -918.44582    92345.414   0.97182764    312.56011 
   57000       695000    -26851.07    321.92405    2877.8237   -29728.894   -28232.378    321.92405   -1025.6501    92345.414   0.97182764     315.5759 
   57500       700000   -26916.982    317.87732    2841.6482    -29758.63   -27658.867    317.87732   -550.86533    92345.414   0.97182764    318.82291 
   58000       705000   -26880.958    321.35388    2872.7267   -29753.684   -28590.718    321.35388   -1269.5329    92345.414   0.97182764     322.3323 
   58500       710000   -26946.722    322.57944    2883.6826   -29830.404    -27967.84    322.57944   -758.20182    92345.414   0.97182764    325.74619 
   59000       715000   -26876.783    323.81004    2894.6835   -29771.466   -28358.085    323.81004   -1099.8979    92345.414   0.97182764     328.5343 
   59500       720000   -26835.006    331.38217    2962.3741   -29797.381   -28292.883    331.38217   -1082.5043    92345.414   0.97182764    331.26563 
   60000       725000   -26656.394    336.23526    3005.7581   -29662.152   -27789.516    336.23526   -841.36692    92345.414   0.97182764    333.98794 
   60500       730000   -26908.471    318.93583    2851.1107   -29759.582   -27597.315    318.93583   -511.48132    92345.414   0.97182764    336.72424 
   61000       735000   -26772.345    327.10442    2924.1334   -29696.478   -27962.686    327.10442   -883.85336    92345.414   0.97182764    339.42145 
   61500       740000   -26769.975    324.12654    2897.5128   -29667.488   -27746.392    324.12654   -725.01022    92345.414   0.97182764    342.10841 
   62000       745000   -26810.092    322.56558    2883.5587    -29693.65    -27708.53    322.56558   -667.10964    92345.414   0.97182764    344.89163 
   62500       750000    -26905.89    318.06704    2843.3442   -29749.235   -28064.469    318.06704    -860.2691    92345.414   0.97182764    348.46051 
   63000       755000   -26722.279    330.38044    2953.4192   -29675.698   -28027.288    330.38044   -968.99712    92345.414   0.97182764    351.85073 
   63500       760000   -26747.253    327.09148    2924.0177   -29671.271   -27718.868    327.09148    -721.4447    92345.414   0.97182764    355.06223 
   64000       765000   -26927.932    317.32982    2836.7539   -29764.686   -27751.964    317.32982   -611.86079    92345.414   0.97182764    357.78482 
   64500       770000   -26830.302    315.44437     2819.899   -29650.201   -27915.801    315.44437   -806.00554    92345.414   0.97182764     360.5115 
   65000       775000   -26727.674    328.06388    2932.7105   -29660.384   -28033.237    328.06388     -969.408    92345.414   0.97182764    363.77278 
   65500       780000   -26791.569     323.2739    2889.8907   -29681.459   -28439.764     323.2739   -1223.8195    92345.414   0.97182764    367.54821 
   66000       785000   -26842.654    326.14228    2915.5324   -29758.186   -27873.465    326.14228   -765.39881    92345.414   0.97182764    370.48297 
   66500       790000   -26782.624    319.91546     2859.868   -29642.492   -27844.006    319.91546   -788.09847    92345.414   0.97182764    374.12253 
   67000       795000   -26873.826    319.43081    2855.5356   -29729.362   -28125.205    319.43081   -929.17529    92345.414   0.97182764    377.33532 
   67500       800000   -26849.717    326.44765    2918.2622    -29767.98   -27521.996    326.44765   -499.18124    92345.414   0.97182764    379.97128 
   68000       805000   -26959.105     322.7477    2885.1867   -29844.291   -28129.989     322.7477   -869.40624    92345.414   0.97182764    382.94965 
   68500       810000   -26997.931    313.15723    2799.4532   -29797.384   -28700.201    313.15723   -1263.9716    92345.414   0.97182764    385.43637 
   69000       815000    -26936.38    314.00547     2807.036   -29743.416   -27780.475    314.00547   -626.75888    92345.414   0.97182764    388.10595 
   69500       820000   -26934.622    326.10304    2915.1816   -29849.804   -27994.744    326.10304   -787.16218    92345.414   0.97182764    392.15203 
   70000       825000   -26849.213     328.7029    2938.4229   -29787.636   -28116.853     328.7029   -941.24915    92345.414   0.97182764    397.13499 
   70500       830000   -26875.285    322.24078    2880.6551    -29755.94   -28360.224    322.24078    -1102.598    92345.414   0.97182764    400.48379 
   71000       835000   -27005.293    319.01532    2851.8213   -29857.114   -28150.416    319.01532   -850.27805    92345.414   0.97182764    403.72143 
   71500       840000   -26923.023    313.51708    2802.6701   -29725.693   -28627.983    313.51708   -1265.9681    92345.414   0.97182764    406.56922 
   72000       845000   -26936.821    316.73022    2831.3937   -29768.214   -28224.614    316.73022   -956.21346    92345.414   0.97182764    409.22128 
   72500       850000   -26871.922    316.04502    2825.2685    -29697.19   -27941.137    316.04502   -793.91517    92345.414   0.97182764    412.10072 
   73000       855000   -26907.836    323.43748     2891.353   -29799.189   -28046.118    323.43748   -845.19802    92345.414   0.97182764    415.66034 
   73500       860000   -26825.268    322.67381    2884.5262   -29709.795    -27226.14    322.67381   -297.65535    92345.414   0.97182764    418.58497 
   74000       865000   -26867.834    322.98061    2887.2688   -29755.103   -27881.505    322.98061   -752.67228    92345.414   0.97182764    421.47682 
   74500       870000   -26935.018     318.8121    2850.0046   -29785.023   -28401.548     318.8121   -1088.9294    92345.414   0.97182764    424.75043 
   75000       875000   -26866.644    321.96674    2878.2053    -29744.85   -27602.784    321.96674   -546.59914    92345.414   0.97182764    427.89094 
   75500       880000    -26855.94    321.95157    2878.0698    -29734.01   -28139.132    321.95157   -952.79667    92345.414   0.97182764    431.23406 
   76000       885000     -26984.1    323.79382    2894.5385   -29878.638   -28227.632    323.79382   -923.34857    92345.414   0.97182764    434.35429 
   76500       890000   -26778.191    321.33121    2872.5241   -29650.715   -27587.974    321.33121   -601.28077    92345.414   0.97182764    437.46159 
   77000       895000   -26975.245    319.21534    2853.6094   -29828.855    -28590.82    319.21534   -1199.5979    92345.414   0.97182764    440.38244 
   77500       900000   -26961.107    315.41799    2819.6631    -29780.77   -28315.533    315.41799   -1005.6898    92345.414   0.97182764    444.04069 
   78000       905000   -26950.922    313.97662    2806.7781   -29757.701    -28719.82    313.97662   -1313.4438    92345.414   0.97182764    447.28298 
   78500       910000   -26871.997    317.00239    2833.8268   -29705.824   -28170.584    317.00239   -964.22795    92345.414   0.97182764    449.92587 
   79000       915000   -26931.538     320.7904    2867.6896   -29799.227   -28752.325     320.7904   -1351.9728    92345.414   0.97182764    452.58877 
   79500       920000   -26841.732    320.93051     2868.942   -29710.674    -28531.56    320.93051   -1254.7331    92345.414   0.97182764    455.25263 
   80000       925000   -26858.442     313.8806    2805.9197   -29664.362   -28440.989     313.8806    -1175.074    92345.414   0.97182764    457.89957 
   80500       930000   -27017.761    312.66816    2795.0812   -29812.842   -27914.177    312.66816   -665.60787    92345.414   0.97182764    460.50728 
   81000       935000   -26869.726    316.54661    2829.7524   -29699.478    -27997.43    316.54661   -837.34379    92345.414   0.97182764    463.15017 
   81500       940000   -27019.236    309.63049    2767.9261   -29787.162   -27763.134    309.63049   -552.35994    92345.414   0.97182764    465.90407 
   82000       945000   -26995.811    313.82604     2805.432   -29801.243   -28567.443    313.82604   -1166.9693    92345.414   0.97182764    468.57685 
   82500       950000    -26940.92    314.31593    2809.8113   -29750.732   -28030.143    314.31593   -808.77088    92345.414   0.97182764    471.23668 
   83000       955000   -26885.285    319.68895    2857.8431   -29743.128   -28128.067    319.68895   -922.79215    92345.414   0.97182764      473.942 
   83500       960000   -26898.458    327.56156      2928.22   -29826.678    -28102.48    327.56156   -894.01176    92345.414   0.97182764    477.52363 
   84000       965000   -27082.825    313.47212    2802.2682   -29885.093   -28020.683    313.47212   -696.37927    92345.414   0.97182764    480.18133 
   84500       970000   -26869.713    321.05967    2870.0966    -29739.81   -27593.313    321.05967   -537.28769    92345.414   0.97182764    482.84395 
   85000       975000   -26911.337    318.34758    2845.8521   -29757.189   -28335.529    318.34758   -1057.4924    92345.414   0.97182764    485.56073 
   85500       980000   -26932.971    312.55776    2794.0943   -29727.065   -28695.344    312.55776   -1308.5996    92345.414   0.97182764    488.15321 
   86000       985000   -26940.775    320.89001      2868.58   -29809.355   -28352.355    320.89001   -1048.1282    92345.414   0.97182764    490.77951 
   86500       990000    -27071.84     308.6926    2759.5419   -29831.382   -28450.688     308.6926   -1023.8241    92345.414   0.97182764    493.53323 
   87000       995000   -26926.721    312.14837    2790.4345   -29717.156   -28139.889    312.14837   -900.80256    92345.414   0.97182764    496.18161 
   87500      1000000   -26876.717    320.49036    2865.0073   -29741.725   -27491.202    320.49036   -456.26805    92345.414   0.97182764    498.86778 
   88000      1005000   -27009.411    313.06001    2798.5841   -29807.995   -28363.072    313.06001   -1005.1221    92345.414   0.97182764    501.55608 
   88500      1010000    -27065.96    314.70657    2813.3035   -29879.264   -28611.282    314.70657   -1147.4341    92345.414   0.97182764    504.25825 
   89000      1015000   -26869.094    322.27157    2880.9304   -29750.024   -27969.156    322.27157   -816.81935    92345.414   0.97182764    506.91483 
   89500      1020000   -26998.213    318.77092    2849.6365    -29847.85   -28014.912    318.77092   -754.92028    92345.414   0.97182764    509.61593 
   90000      1025000   -26873.527    315.72171    2822.3782   -29695.905   -28359.372    315.72171   -1103.2717    92345.414   0.97182764    512.32788 
   90500      1030000   -26905.302    320.28536    2863.1748   -29768.477   -28252.819    320.28536   -1000.5595    92345.414   0.97182764    514.94102 
   91000      1035000    -27004.73    314.13246    2808.1713   -29812.901   -28248.529    314.13246   -923.54703    92345.414   0.97182764    517.62769 
   91500      1040000   -26981.783    311.40946    2783.8291   -29765.613   -28610.856    311.40946    -1209.621    92345.414   0.97182764    520.26355 
   92000      1045000   -27049.455    318.22828    2844.7856   -29894.241    -28809.69    318.22828   -1307.0119    92345.414   0.97182764    522.95415 
   92500      1050000   -26909.909    319.34791    2854.7945   -29764.703   -28276.928    319.34791   -1015.0402    92345.414   0.97182764    525.67017 
   93000      1055000   -26987.101    314.71892    2813.4138   -29800.515   -28255.079    314.71892   -941.50047    92345.414   0.97182764    528.45325 
   93500      1060000   -27063.884    313.09251    2798.8746   -29862.758   -28314.147    313.09251   -928.34677    92345.414   0.97182764    531.20941 
   94000      1065000   -27021.864    312.75096    2795.8214   -29817.685   -27693.634    312.75096   -498.80377    92345.414   0.97182764    534.00858 
   94500      1070000   -26994.127    324.42518    2900.1825   -29894.309   -28142.362    324.42518   -852.58878    92345.414   0.97182764    536.60322 
   95000      1075000   -26977.912    307.95242     2752.925   -29730.837   -27989.075    307.95242    -750.8098    92345.414   0.97182764    539.37971 
   95500      1080000   -27032.861    313.73182    2804.5897   -29837.451   -28216.845    313.73182   -879.13323    92345.414   0.97182764    542.05949 
   96000      1085000   -27040.673    312.36207    2792.3449   -29833.017   -28452.728    312.36207   -1048.4807    92345.414   0.97182764    544.76878 
   96500      1090000   -26980.942    315.60828    2821.3642   -29802.306    -28517.35    315.60828   -1140.8157    92345.414   0.97182764    547.40829 
   97000      1095000   -27052.495    314.46345      2811.13   -29863.625   -28627.934    314.46345    -1169.796    92345.414   0.97182764    550.12104 
   97500      1100000   -26920.747    321.88863    2877.5071   -29798.254   -28024.221    321.88863   -819.35284    92345.414   0.97182764    552.82732 
   98000      1105000   -26874.908    325.93719     2913.699   -29788.607    -28168.45    325.93719   -960.48211    92345.414   0.97182764    555.53698 
   98500      1110000   -27039.143    312.16317    2790.5669    -29829.71   -28193.594    312.16317   -857.20401    92345.414   0.97182764    558.17972 
   99000      1115000   -26936.421     318.9132    2850.9084   -29787.329   -27862.766     318.9132    -687.8311    92345.414   0.97182764    560.87018 
   99500      1120000   -27035.276    315.05564    2816.4239     -29851.7   -28386.329    315.05564   -1003.1851    92345.414   0.97182764    563.59242 
  100000      1125000   -26950.453    321.38291    2872.9862   -29823.439   -28338.766    321.38291    -1030.852    92345.414   0.97182764    566.20177 
  100500      1130000   -26931.651    318.61166    2848.2128   -29779.864   -28374.174    318.61166   -1071.1042    92345.414   0.97182764    568.82101 
  101000      1135000    -27025.28    315.59231    2821.2215   -29846.502    -28573.51    315.59231   -1149.5933    92345.414   0.97182764    571.90186 
  101500      1140000   -26897.912    317.47339    2838.0373   -29735.949   -28043.851    317.47339    -850.8843    92345.414   0.97182764    574.51896 
  102000      1145000   -27089.467    312.29952    2791.7858   -29881.253   -28230.567    312.29952   -847.29118    92345.414   0.97182764    577.10895 
  102500      1150000   -27007.088    319.39725    2855.2355   -29862.324   -28114.966    319.39725   -822.62268    92345.414   0.97182764    579.74282 
  103000      1155000    -26991.93    318.34384    2845.8186   -29837.749   -28535.497    318.34384   -1146.1309    92345.414   0.97182764    582.43266 
  103500      1160000   -27072.316    313.72491    2804.5279   -29876.844    -28510.49    313.72491   -1067.8745    92345.414   0.97182764    585.05984 
  104000      1165000   -26944.995    318.46318    2846.8854    -29791.88   -28259.809    318.46318   -976.27706    92345.414   0.97182764    587.82374 
  104500      1170000   -26982.538    312.01346    2789.2285   -29771.767   -28133.996    312.01346   -854.98149    92345.414   0.97182764    590.59301 
  105000      1175000   -27036.167    314.52739    2811.7016   -29847.868   -27772.737    314.52739   -546.91905    92345.414   0.97182764    593.21527 
  105500      1180000   -27061.603    319.93956    2860.0835   -29921.687   -28346.761    319.93956   -954.25689    92345.414   0.97182764    595.84738 
  106000      1185000   -26983.154    320.25567    2862.9093   -29846.063   -28268.803    320.25567   -954.62147    92345.414   0.97182764    598.42333 
  106500      1190000   -27060.495    312.91567    2797.2937   -29857.789   -28597.106    312.91567   -1140.9659    92345.414   0.97182764    601.10696 
  107000      1195000    -27046.74    312.91132    2797.2549   -29843.994   -28880.684    312.91132   -1361.7421    92345.414   0.97182764    603.72911 
  107500      1200000   -27075.455    312.46275     2793.245     -29868.7   -28233.688    312.46275   -860.01297    92345.414   0.97182764    606.34739 
  108000      1205000   -27010.481    311.16697    2781.6613   -29792.143   -28138.923    311.16697   -837.89195    92345.414   0.97182764    609.00839 
  108500      1210000   -27032.792    314.70246    2813.2667   -29846.059   -27929.919    314.70246   -666.13504    92345.414   0.97182764     611.6126 
  109000      1215000   -27119.327    311.50394    2784.6737   -29904.001   -28385.287    311.50394   -940.00166    92345.414   0.97182764    614.20863 
  109500      1220000   -26888.071    322.09659    2879.3662   -29767.437   -28086.217    322.09659   -889.64814    92345.414   0.97182764    616.83729 
  110000      1225000    -27124.95    310.95057    2779.7269   -29904.677    -28740.11    310.95057   -1199.2907    92345.414   0.97182764    619.61625 
  110500      1230000   -27016.959    315.59395    2821.2361   -29838.195   -28132.157    315.59395   -828.05781    92345.414   0.97182764    622.36327 
  111000      1235000   -27017.077    309.33821    2765.3133   -29782.391   -28052.494    309.33821   -768.81848    92345.414   0.97182764    625.03093 
  111500      1240000   -27016.694    316.85417    2832.5018   -29849.196   -28688.043    316.85417   -1241.0122    92345.414   0.97182764    627.78567 
  112000      1245000   -27128.205    305.19895    2728.3106   -29856.516   -29067.211    305.19895   -1439.7526    92345.414   0.97182764    630.42486 
  112500      1250000    -27113.11    312.57159    2794.2179   -29907.328   -28597.109    312.57159   -1101.9008    92345.414   0.97182764    633.12805 
  113000      1255000   -27011.655    315.00036    2815.9297   -29827.585   -28471.499    315.00036   -1083.9648    92345.414   0.97182764    635.75159 
  113500      1260000   -26905.526    321.54335    2874.4205   -29779.946   -28048.737    321.54335   -848.85881    92345.414   0.97182764    638.35047 
  114000      1265000   -27004.991    316.36827    2828.1581   -29833.149   -28952.116    316.36827   -1445.7816    92345.414   0.97182764    641.02666 
  114500      1270000     -27124.9    307.35324    2747.5687   -29872.469   -27655.629    307.35324   -394.07755    92345.414   0.97182764    643.61299 
  115000      1275000   -27101.271    309.11932    2763.3565   -29864.628   -28716.382    309.11932   -1199.2538    92345.414   0.97182764    646.48914 
  115500      1280000   -26902.311    317.64639    2839.5838   -29741.894   -28033.194    317.64639   -839.70458    92345.414   0.97182764    649.09389 
  116000      1285000   -27009.836    307.08883     2745.205   -29755.041   -28527.681    307.08883   -1127.0316    92345.414   0.97182764    651.82122 
  116500      1290000   -27095.707    306.25745     2737.773    -29833.48   -28216.228    306.25745   -832.01064    92345.414   0.97182764    654.44503 
  117000      1295000   -27108.595    311.30853    2782.9268   -29891.522   -27785.587    311.30853   -502.68033    92345.414   0.97182764    657.29422 
  117500      1300000   -27083.911    312.99344     2797.989     -29881.9   -28430.778    312.99344   -1000.0771    92345.414   0.97182764    659.98098 
  118000      1305000   -27032.264    317.67593    2839.8479   -29872.111   -28118.611    317.67593   -806.63606    92345.414   0.97182764    662.71625 
  118500      1310000   -27148.532     314.6529    2812.8236   -29961.356   -28792.806     314.6529   -1220.9084    92345.414   0.97182764    665.35046 
  119000      1315000   -27192.317    308.33558    2756.3503   -29948.667   -28714.777    308.33558   -1130.4588    92345.414   0.97182764    667.95371 
  119500      1320000   -27092.492    308.35732    2756.5446   -29849.037    -28223.58    308.35732   -839.85654    92345.414   0.97182764    670.54732 
  120000      1325000   -27109.377    315.03599    2816.2483   -29925.625   -28133.458    315.03599   -760.40181    92345.414   0.97182764    673.31822 
  120500      1330000   -27086.095    308.75175    2760.0706   -29846.166   -28014.944    308.75175   -689.68977    92345.414   0.97182764    676.19531 
  121000      1335000   -27110.789    312.70772    2795.4348   -29906.224   -28621.133    312.70772   -1121.4624    92345.414   0.97182764    679.08899 
  121500      1340000   -27133.069    307.48996     2748.791    -29881.86   -29290.094    307.48996   -1601.6366    92345.414   0.97182764    681.70868 
  122000      1345000   -27030.036    313.76615    2804.8966   -29834.933    -28451.39    313.76615   -1055.3851    92345.414   0.97182764    684.33893 
  122500      1350000   -27096.169    307.73423    2750.9745   -29847.144   -27883.205    307.73423   -584.39058    92345.414   0.97182764    687.07544 
  123000      1355000    -27164.23    302.22874    2701.7585   -29865.988   -28035.874    302.22874   -647.21426    92345.414   0.97182764    689.77929 
  123500      1360000   -27061.173     312.2386    2791.2411   -29852.414   -28544.579     312.2386   -1101.4603    92345.414   0.97182764     692.4238 
  124000      1365000   -27188.548    310.38492    2774.6703   -29963.219   -28701.332    310.38492   -1123.2734    92345.414   0.97182764     695.0868 
  124500      1370000   -27034.721    305.46047    2730.6484    -29765.37   -28008.133    305.46047   -722.77878    92345.414   0.97182764    697.69416 
  125000      1375000   -27126.025    311.78682    2787.2024   -29913.228   -28599.488    311.78682    -1094.077    92345.414   0.97182764    700.31785 
  125500      1380000   -27039.543     315.0884    2816.7168    -29856.26   -28125.542     315.0884   -806.37706    92345.414   0.97182764    702.97428 
  126000      1385000   -27137.232    309.99717     2771.204   -29908.436   -29105.314    309.99717   -1461.3422    92345.414   0.97182764      705.715 
  126500      1390000   -27147.207    307.56379     2749.451   -29896.658   -28512.102    307.56379   -1013.4632    92345.414   0.97182764    708.35558 
  127000      1395000   -27056.981    307.12442    2745.5232   -29802.504   -28663.278    307.12442   -1192.7096    92345.414   0.97182764     711.1557 
  127500      1400000   -27056.377    313.56903    2803.1345   -29859.512   -27993.702    313.56903   -695.98302    92345.414   0.97182764    713.83351 
  128000      1405000   -27121.365    305.76629    2733.3823   -29854.747   -28680.977    305.76629   -1158.0448    92345.414   0.97182764    716.42228 
  128500      1410000   -27128.078    310.21029    2773.1092   -29901.187   -28294.884    310.21029   -866.37851    92345.414   0.97182764    719.04062 
  129000      1415000   -27102.886    306.10805    2736.4374   -29839.323   -28189.617    306.10805   -806.92035    92345.414   0.97182764    721.61975 
  129500      1420000   -27068.697    314.63047    2812.6231    -29881.32   -28231.959    314.63047   -863.74598    92345.414   0.97182764    724.33097 
  130000      1425000   -27105.648    315.17124    2817.4573   -29923.106   -28364.925    315.17124     -935.039    92345.414   0.97182764    726.90472 
  130500      1430000     -27126.3    309.30069    2764.9779   -29891.278   -28545.426    309.30069   -1053.7308    92345.414   0.97182764    729.54403 
  131000      1435000   -27144.244    308.42959    2757.1907   -29901.434   -29059.039    308.42959   -1421.7757    92345.414   0.97182764    732.19193 
  131500      1440000   -27067.225    313.67803    2804.1089   -29871.334   -28501.773    313.67803   -1065.1817    92345.414   0.97182764    734.80418 
  132000      1445000   -27213.744    307.00794     2744.482   -29958.226   -28616.935    307.00794    -1041.899    92345.414   0.97182764    737.47216 
  132500      1450000   -27137.804    303.99975    2717.5904   -29855.394   -28378.512    303.99975   -921.25179    92345.414   0.97182764    740.23256 
  133000      1455000   -27106.173    311.85511     2787.813   -29893.986   -28991.808    311.85511   -1400.1238    92345.414   0.97182764    742.92925 
  133500      1460000   -27202.296    304.24698    2719.8005   -29922.096   -28483.276    304.24698   -951.15506    92345.414   0.97182764    745.51354 
  134000      1465000   -27236.058     302.4646    2703.8669   -29939.925   -29141.809     302.4646   -1415.0599    92345.414   0.97182764    748.22727 
  134500      1470000   -27114.735    307.67505    2750.4455   -29865.181   -28137.155    307.67505   -759.16807    92345.414   0.97182764    750.85202 
  135000      1475000   -27147.181    307.85049    2752.0139   -29899.195   -27845.026    307.85049   -518.16477    92345.414   0.97182764     753.6712 
  135500      1480000   -27121.121    313.55716    2803.0284    -29924.15   -28023.969    313.55716   -670.38333    92345.414   0.97182764    756.29136 
  136000      1485000   -27022.307    318.18855    2844.4305   -29866.738   -28420.408    318.18855   -1038.1196    92345.414   0.97182764     758.8712 
  136500      1490000     -27167.8    312.59083    2794.3899    -29962.19    -28040.43    312.59083   -647.94582    92345.414   0.97182764    761.47302 
  137000      1495000   -27152.304    306.23332    2737.5572   -29889.861   -28729.219    306.23332   -1170.8925    92345.414   0.97182764     764.1516 
  137500      1500000   -27120.009    317.49235    2838.2068   -29958.216   -28073.624    317.49235   -708.07906    92345.414   0.97182764    766.90782 
  138000      1505000   -27269.573    306.63488     2741.147    -30010.72   -28981.607    306.63488   -1271.2209    92345.414   0.97182764     769.4921 
  138500      1510000   -27091.522    315.10093    2816.8288   -29908.351   -28632.657    315.10093   -1144.3253    92345.414   0.97182764     772.1044 
  139000      1515000   -27185.167    300.23999    2683.9802   -29869.147   -28368.265    300.23999   -878.47482    92345.414   0.97182764    774.75121 
  139500      1520000   -27116.642    308.94134    2761.7655   -29878.408    -28727.21    308.94134   -1195.8807    92345.414   0.97182764    777.39183 
  140000      1525000   -27205.475    301.50785    2695.3141   -29900.789   -29101.103    301.50785   -1407.5438    92345.414   0.97182764    780.04875 
  140500      1530000   -27244.647    308.33802    2756.3721   -30001.019   -28675.946    308.33802   -1062.7695    92345.414   0.97182764     782.6889 
  141000      1535000   -27088.274     304.9742    2726.3014   -29814.575   -28701.545     304.9742    -1197.888    92345.414   0.97182764    785.32285 
  141500      1540000   -27057.238    313.82264    2805.4016    -29862.64   -27938.571    313.82264   -654.40854    92345.414   0.97182764    788.08111 
  142000      1545000    -27184.27    307.92736    2752.7011   -29936.971   -28739.969    307.92736   -1155.1391    92345.414   0.97182764    790.69312 
  142500      1550000   -27218.913    307.89572    2752.4182   -29971.332   -28764.489    307.89572   -1147.6228    92345.414   0.97182764    793.99876 
  143000      1555000    -27140.64    310.16462    2772.7009   -29913.341   -29023.569    310.16462   -1398.1145    92345.414   0.97182764     796.6149 
  143500      1560000   -27073.638    309.67623     2768.335   -29841.973   -28212.426    309.67623   -845.57398    92345.414   0.97182764    799.21889 
  144000      1565000   -27099.816    308.51876    2757.9878   -29857.804   -28187.773    308.51876   -807.83077    92345.414   0.97182764     801.8974 
  144500      1570000     -27157.3    306.06935    2736.0914   -29893.391   -28931.574    306.06935    -1317.436    92345.414   0.97182764     804.5604 
  145000      1575000   -27179.367    305.44609    2730.5198   -29909.887   -28025.249    305.44609   -628.08534    92345.414   0.97182764    807.15489 
  145500      1580000   -27153.393    303.67207    2714.6611   -29868.054   -28580.854    303.67207   -1059.9201    92345.414   0.97182764    809.73099 
  146000      1585000   -27220.356    305.72063    2732.9741    -29953.33   -28878.335    305.72063   -1231.0843    92345.414   0.97182764    812.29302 
  146500      1590000    -27218.72    308.79034    2760.4156   -29979.136   -29062.262    308.79034   -1368.8686    92345.414   0.97182764    814.90757 
  147000      1595000   -27160.875    307.72214    2750.8665   -29911.741   -28502.642    307.72214   -996.29048    92345.414   0.97182764    817.55403 
  147500      1600000   -27172.373    317.05287     2834.278   -30006.651   -28332.985    317.05287   -861.77913    92345.414   0.97182764    820.07389 
  148000      1605000   -27232.457    309.43645    2766.1915   -29998.648   -28694.028    309.43645   -1085.2473    92345.414   0.97182764    822.76618 
  148500      1610000   -27261.066    308.69275    2759.5432   -30020.609   -28976.388    308.69275   -1273.6631    92345.414   0.97182764    825.38539 
  149000      1615000   -27151.713    304.69874    2723.8389   -29875.552   -27935.758    304.69874   -582.16996    92345.414   0.97182764    828.15195 
  149500      1620000   -27192.754    308.83319    2760.7987   -29953.552   -28735.899    308.83319   -1145.8179    92345.414   0.97182764    830.83321 
  150000      1625000   -27203.993    302.07936    2700.4232   -29904.416    -28871.51    302.07936    -1238.167    92345.414   0.97182764    833.47546 
  150500      1630000   -27255.685    298.29402    2666.5843   -29922.269   -28366.304    298.29402   -824.65821    92345.414   0.97182764    836.08825 
  151000      1635000   -27185.252    307.33868    2747.4386   -29932.691   -28795.866    307.33868   -1195.9148    92345.414   0.97182764     838.6537 
  151500      1640000   -27193.446    305.03182    2726.8165   -29920.263   -28283.644    305.03182     -809.495    92345.414   0.97182764     841.2161 
  152000      1645000   -27240.555    307.11204    2745.4125   -29985.967   -28927.801    307.11204   -1252.8156    92345.414   0.97182764    843.81706 
  152500      1650000    -27183.17    304.17705    2719.1753   -29902.345   -28984.886    304.17705   -1337.8123    92345.414   0.97182764    846.35727 
  153000      1655000   -27309.843    299.83165    2680.3299   -29990.173   -28755.294    299.83165   -1073.2781    92345.414   0.97182764    848.99716 
  153500      1660000   -27269.843    298.10857    2664.9264   -29934.769   -28621.151    298.10857   -1003.3745    92345.414   0.97182764    851.53127 
  154000      1665000   -27233.018    310.26147    2773.5667   -30006.585   -28361.032    310.26147   -837.57428    92345.414   0.97182764    854.22512 
  154500      1670000   -27154.323    309.60847    2767.7292   -29922.052   -27946.126    309.60847   -587.93034    92345.414   0.97182764    856.83883 
  155000      1675000   -27171.056    305.75886    2733.3158   -29904.371   -28681.787    305.75886   -1121.7502    92345.414   0.97182764    859.67179 
  155500      1680000   -27296.386    299.40983     2676.559   -29972.945   -28246.729    299.40983   -705.64968    92345.414   0.97182764    862.27845 
  156000      1685000     -27194.5     309.4232     2766.073   -29960.573   -28377.616     309.4232   -878.48905    92345.414   0.97182764    864.87374 
  156500      1690000   -27326.804    300.86999     2689.612   -30016.416   -29141.276    300.86999   -1347.2835    92345.414   0.97182764    867.58499 
  157000      1695000   -27270.398    297.16843    2656.5222    -29926.92    -29113.18    297.16843   -1368.3052    92345.414   0.97182764     870.1587 
  157500      1700000   -27300.758    299.66964    2678.8815    -29979.64   -28632.796    299.66964   -989.06611    92345.414   0.97182764    872.76436 
  158000      1705000    -27223.93    305.34851    2729.6475   -29953.578   -28529.358    305.34851   -969.30774    92345.414   0.97182764    875.41192 
  158500      1710000   -27220.948    305.59413    2731.8433   -29952.791   -28418.062    305.59413   -888.88211    92345.414   0.97182764    877.99985 
  159000      1715000   -27291.956    295.71814    2643.5573   -29935.513   -28709.549    295.71814   -1052.5922    92345.414   0.97182764    880.61356 
  159500      1720000   -27291.101    303.45001     2712.676   -30003.777   -28893.946    303.45001   -1190.1467    92345.414   0.97182764    883.25431 
  160000      1725000   -27167.043    307.78538    2751.4318   -29918.475   -28409.386    307.78538   -922.46561    92345.414   0.97182764    886.03058 
  160500      1730000   -27181.002    303.33792    2711.6739   -29892.676   -29113.602    303.33792   -1434.9962    92345.414   0.97182764    888.62058 
  161000      1735000   -27219.801    305.41535    2730.2451   -29950.046   -28180.694    305.41535   -713.48323    92345.414   0.97182764    891.25844 
  161500      1740000   -27319.839    303.53183    2713.4074   -30033.246   -28395.575    303.53183   -798.75671    92345.414   0.97182764    893.85649 
  162000      1745000    -27283.78    299.41608    2676.6149   -29960.395   -28623.276    299.41608    -994.6038    92345.414   0.97182764    896.48235 
  162500      1750000    -27243.32    302.45755    2703.8039   -29947.124   -28817.951    302.45755   -1169.1971    92345.414   0.97182764    899.10177 
  163000      1755000   -27411.018    297.20614    2656.8592   -30067.877   -29019.456    297.20614   -1194.2993    92345.414   0.97182764    901.77803 
  163500      1760000   -27200.028    307.03367     2744.712    -29944.74   -28947.743    307.03367   -1297.7146    92345.414   0.97182764    904.35638 
  164000      1765000   -27261.538    300.74287    2688.4756   -29950.013   -28465.975    300.74287   -894.31974    92345.414   0.97182764     906.9701 
  164500      1770000   -27230.869    300.21582    2683.7641   -29914.633   -28734.349    300.21582   -1116.3655    92345.414   0.97182764    909.49673 
  165000      1775000   -27317.881     297.9899    2663.8656   -29981.747   -28719.987     297.9899   -1041.0926    92345.414   0.97182764    912.10318 
  165500      1780000   -27346.874    301.61444     2696.267   -30043.141   -28666.828    301.61444   -980.09326    92345.414   0.97182764    914.77503 
  166000      1785000   -27306.869    308.20262    2755.1617    -30062.03   -28134.015    308.20262   -614.17336    92345.414   0.97182764    917.44719 
  166500      1790000   -27274.141    301.72712    2697.2743   -29971.415   -28377.047    301.72712   -818.93123    92345.414   0.97182764    920.01584 
  167000      1795000   -27320.392    295.60266     2642.525   -29962.917   -28528.409    295.60266    -896.9776    92345.414   0.97182764    922.69482 
  167500      1800000   -27334.523    299.61948    2678.4331   -30012.956   -28800.433    299.61948    -1088.469    92345.414   0.97182764    925.28749 
  168000      1805000   -27313.162     296.9185    2654.2879    -29967.45   -28530.712     296.9185   -904.05699    92345.414   0.97182764    927.92528 
  168500      1810000   -27259.801    300.68918    2687.9957   -29947.797   -28954.564    300.68918   -1258.3972    92345.414   0.97182764    930.49484 
  169000      1815000    -27345.47    297.07552    2655.6916   -30001.162   -28688.725    297.07552   -997.39515    92345.414   0.97182764    933.20395 
  169500      1820000   -27351.898    301.61281    2696.2524   -30048.151   -29208.222    301.61281   -1378.3594    92345.414   0.97182764    935.77908 
  170000      1825000   -27234.952    307.36864    2747.7064   -29982.658   -28223.018    307.36864      -733.66    92345.414   0.97182764    938.40812 
  170500      1830000    -27247.21    302.82297    2707.0706    -29954.28   -28645.259    302.82297   -1038.0811    92345.414   0.97182764    940.98417 
  171000      1835000   -27298.237     299.8944    2680.8908   -29979.128    -28438.68     299.8944   -846.80295    92345.414   0.97182764    943.64846 
  171500      1840000   -27337.336    299.59269    2678.1937   -30015.529   -28814.223    299.59269     -1096.62    92345.414   0.97182764    946.42477 
  172000      1845000   -27326.627    306.21732    2737.4143   -30064.042   -28107.108    306.21732   -579.52326    92345.414   0.97182764    949.05844 
  172500      1850000   -27243.153    304.23268    2719.6727   -29962.825    -28675.35    304.23268   -1063.4367    92345.414   0.97182764    951.63616 
  173000      1855000   -27401.282      303.993      2717.53   -30118.812   -29118.531      303.993   -1275.0933    92345.414   0.97182764    954.29286 
  173500      1860000   -27115.472     308.2247    2755.3591   -29870.831   -28484.105     308.2247   -1016.2384    92345.414   0.97182764    956.86593 
  174000      1865000   -27356.252    297.28879    2657.5981    -30013.85   -28516.356    297.28879   -861.40175    92345.414   0.97182764    959.52411 
  174500      1870000   -27374.459    306.56974    2740.5647   -30115.023   -28935.246    306.56974   -1158.9179    92345.414   0.97182764    962.17918 
  175000      1875000   -27238.167    302.55813    2704.7031    -29942.87   -29009.531    302.55813    -1315.275    92345.414   0.97182764    964.80649 
  175500      1880000   -27347.174    302.63418    2705.3829   -30052.557    -28507.04    302.63418   -861.22502    92345.414   0.97182764    967.34944 
  176000      1885000   -27372.166    295.38076    2640.5414   -30012.707   -28103.871    295.38076   -543.30632    92345.414   0.97182764    970.00965 
  176500      1890000   -27385.906    304.45884    2721.6943   -30107.601   -29562.296    304.45884    -1616.015    92345.414   0.97182764    972.61736 
  177000      1895000   -27240.656    306.27495    2737.9294   -29978.585   -28455.433    306.27495   -901.99738    92345.414   0.97182764    975.45266 
  177500      1900000   -27348.027    302.11905     2700.778   -30048.805   -28697.757    302.11905   -1002.2029    92345.414   0.97182764    978.19602 
  178000      1905000   -27373.403    299.93393    2681.2441   -30054.647   -29101.386    299.93393   -1283.0637    92345.414   0.97182764    980.89327 
  178500      1910000   -27401.051    293.38558    2622.7056   -30023.757   -29029.806    293.38558   -1209.3849    92345.414   0.97182764    984.10375 
  179000      1915000   -27293.342    303.87203    2716.4487    -30009.79   -28396.189    303.87203   -818.88713    92345.414   0.97182764    987.28884 
  179500      1920000   -27410.172     295.2416    2639.2973    -30049.47   -28423.461     295.2416   -752.38848    92345.414   0.97182764    989.83027 
  180000      1925000     -27454.7    291.40691    2605.0173   -30059.717   -29534.556    291.40691    -1544.337    92345.414   0.97182764    992.42384 
  180500      1930000   -27298.838    297.43404    2658.8965   -29957.734   -28720.411    297.43404   -1055.5481    92345.414   0.97182764    995.00974 
  181000      1935000   -27353.412    301.38876    2694.2496   -30047.662   -28198.533    301.38876   -627.51982    92345.414   0.97182764    997.61997 
  181500      1940000   -27390.275    301.64688     2696.557   -30086.832   -29088.313    301.64688    -1260.829    92345.414   0.97182764    1000.2192 
  182000      1945000   -27371.276    304.42823    2721.4208   -30092.697   -28498.046    304.42823   -836.65006    92345.414   0.97182764    1002.7655 
  182500      1950000   -27311.971     299.1185    2673.9546   -29985.926   -29197.379     299.1185   -1399.9553    92345.414   0.97182764    1005.3698 
  183000      1955000   -27386.881    306.88525    2743.3852   -30130.266   -28813.553    306.88525   -1059.3342    92345.414   0.97182764    1008.1129 
  183500      1960000   -27291.132    309.16488    2763.7638   -30054.895   -28920.881    309.16488   -1210.1232    92345.414   0.97182764    1010.6836 
  184000      1965000    -27389.86    295.51487    2641.7402     -30031.6   -28777.943    295.51487   -1030.6813    92345.414   0.97182764    1013.3522 
  184500      1970000   -27301.929    299.82723    2680.2903   -29982.219   -29068.676    299.82723   -1311.8468    92345.414   0.97182764    1015.9299 
  185000      1975000   -27232.963     304.6282    2723.2084   -29956.171   -28950.538     304.6282   -1275.3356    92345.414   0.97182764    1018.5481 
  185500      1980000   -27379.507    300.11093    2682.8264   -30062.333   -28621.468    300.11093   -922.18273    92345.414   0.97182764    1021.1367 
  186000      1985000   -27285.449    309.76704    2769.1467   -30054.596   -28607.261    309.76704   -981.47327    92345.414   0.97182764     1023.717 
  186500      1990000   -27429.692    303.54981    2713.5681    -30143.26   -28826.778    303.54981   -1037.3662    92345.414   0.97182764    1026.3026 
  187000      1995000    -27275.09    298.64522    2669.7238   -29944.814   -29028.035    298.64522   -1301.5986    92345.414   0.97182764    1028.9015 
  187500      2000000   -27335.355       300.25    2684.0697   -30019.425   -28953.514       300.25   -1201.5169    92345.414   0.97182764     1031.427 
  188000      2005000   -27468.988    300.04872    2682.2704   -30151.258   -29469.743    300.04872   -1485.6029    92345.414   0.97182764    1034.0788 
  188500      2010000   -27373.753    293.36398    2622.5125   -29996.266   -28686.119    293.36398   -974.45883    92345.414   0.97182764    1036.6653 
  189000      2015000   -27311.927    306.74044    2742.0906   -30054.017   -28339.815    306.74044    -763.2288    92345.414   0.97182764    1039.2472 
  189500      2020000   -27419.966    290.67064    2598.4355   -30018.401   -28679.894    290.67064   -935.52286    92345.414   0.97182764    1041.8575 
  190000      2025000   -27421.951    291.90617    2609.4805   -30031.431   -28706.456    291.90617   -953.77217    92345.414   0.97182764    1044.4936 
  190500      2030000   -27387.537    296.80295    2653.2549   -30040.792   -29110.037    296.80295   -1278.9919    92345.414   0.97182764    1047.0783 
  191000      2035000   -27385.365    303.11352     2709.668   -30095.033   -28948.306    303.11352   -1160.5172    92345.414   0.97182764    1049.6214 
  191500      2040000   -27289.055    302.74345    2706.3597   -29995.414   -29010.919    302.74345   -1278.5202    92345.414   0.97182764    1052.2576 
  192000      2045000   -27331.869    304.06515     2718.175   -30050.044   -28730.611    304.06515   -1038.5952    92345.414   0.97182764     1054.875 
  192500      2050000    -27426.17    299.35191    2676.0412   -30102.211   -28746.691    299.35191   -980.51496    92345.414   0.97182764    1057.4093 
  193000      2055000   -27397.433    293.92712    2627.5466    -30024.98   -28787.257    293.92712   -1031.9737    92345.414   0.97182764    1059.9901 
  193500      2060000   -27353.905    303.74648    2715.3263   -30069.232   -29050.115    303.74648   -1259.4718    92345.414   0.97182764     1062.584 
  194000      2065000   -27574.174    290.06875    2593.0549   -30167.229    -28711.83    290.06875   -844.73343    92345.414   0.97182764    1065.1919 
  194500      2070000   -27299.449    300.47143    2686.0492   -29985.498   -29477.395    300.47143   -1617.1712    92345.414   0.97182764    1067.9335 
  195000      2075000   -27507.199    300.16027    2683.2676   -30190.466   -29020.986    300.16027   -1124.0187    92345.414   0.97182764    1070.6465 
  195500      2080000   -27380.171    297.19103    2656.7242   -30036.895   -28669.504    297.19103   -957.35694    92345.414   0.97182764    1073.2557 
  196000      2085000   -27496.786     293.8139    2626.5345   -30123.321    -29092.96     293.8139   -1185.1929    92345.414   0.97182764    1075.8435 
  196500      2090000   -27379.158    303.95836    2717.2204   -30096.379   -29062.726    303.95836   -1250.0846    92345.414   0.97182764    1078.3961 
  197000      2095000   -27387.937     301.4203    2694.5315   -30082.469   -29220.447     301.4203   -1360.6771    92345.414   0.97182764    1080.9215 
  197500      2100000   -27443.892    294.21702    2630.1382    -30074.03   -28932.927    294.21702   -1105.6402    92345.414   0.97182764    1083.4981 
  198000      2105000   -27384.588    304.82318    2724.9514   -30109.539    -28914.15    304.82318    -1135.732    92345.414   0.97182764    1086.0831 
  198500      2110000   -27277.031    291.94865    2609.8602   -29886.891   -28723.263    291.94865   -1073.8581    92345.414   0.97182764    1088.5862 
  199000      2115000   -27405.768    295.92555    2645.4115   -30051.179   -29053.038    295.92555   -1223.1326    92345.414   0.97182764    1091.2175 
  199500      2120000   -27446.415    298.31807    2666.7993   -30113.214    -28748.12    298.31807   -966.54392    92345.414   0.97182764     1094.844 
  200000      2125000   -27438.263    293.94387    2627.6964   -30065.959   -28598.532    293.94387   -861.52478    92345.414   0.97182764    1098.9962 
  200500      2130000   -27387.378    301.36931    2694.0756   -30081.454   -29112.379    301.36931   -1280.8494    92345.414   0.97182764    1101.9814 
  201000      2135000   -27412.078    300.23853    2683.9671   -30096.045   -28129.174    300.23853   -532.45889    92345.414   0.97182764    1104.8268 
  201500      2140000   -27325.802    300.47979    2686.1238   -30011.926   -28701.058    300.47979   -1021.1563    92345.414   0.97182764    1107.3327 
  202000      2145000   -27496.322    290.40348    2596.0472   -30092.369   -28637.293    290.40348   -847.19556    92345.414   0.97182764    1109.8491 
  202500      2150000   -27390.977       308.38    2756.7474   -30147.724   -28811.649       308.38   -1054.8792    92345.414   0.97182764    1112.5825 
  203000      2155000   -27400.041    296.96381    2654.6929   -30054.733   -29340.559    296.96381   -1440.8758    92345.414   0.97182764    1115.1881 
  203500      2160000   -27527.634    295.10623    2638.0872   -30165.721   -29390.816    295.10623   -1383.4518    92345.414   0.97182764    1118.0973 
  204000      2165000   -27486.876    294.66468      2634.14   -30121.016   -28583.103    294.66468    -813.9718    92345.414   0.97182764    1121.1502 
  204500      2170000   -27441.465    293.03531    2619.5743   -30061.039   -28966.436    293.03531   -1132.3231    92345.414   0.97182764    1123.5883 
  205000      2175000   -27400.904    297.81506    2662.3026   -30063.206   -28841.993    297.81506    -1070.039    92345.414   0.97182764    1126.5153 
  205500      2180000   -27494.293    295.92072    2645.3683   -30139.662   -28916.273    295.92072   -1055.8498    92345.414   0.97182764    1129.0454 
  206000      2185000    -27471.86    296.03861    2646.4221   -30118.282   -29070.736    296.03861   -1187.1996    92345.414   0.97182764    1132.3193 
  206500      2190000   -27460.575    294.90977    2636.3309   -30096.906   -29019.961    294.90977   -1157.8768    92345.414   0.97182764    1137.8416 
  207000      2195000   -27504.939    293.46403    2623.4069   -30128.346   -29252.464    293.46403   -1297.5741    92345.414   0.97182764    1141.8772 
[...]
  439000      4515000   -28465.812    256.86839     2296.262   -30762.074   -30074.421    256.86839    -1194.426    92345.414   0.97182764    2415.2155 
  439500      4520000    -28579.65    259.90538     2323.411   -30903.061   -30498.511    259.90538   -1424.7946    92345.414   0.97182764    2417.5968 
  440000      4525000   -28595.284    257.82708    2304.8321   -30900.116   -30373.002    257.82708   -1319.9936    92345.414   0.97182764    2420.3343 
  440500      4530000   -28657.855    253.50116    2266.1608   -30924.016   -30554.883    253.50116   -1408.5831    92345.414   0.97182764    2422.6155 
  441000      4535000   -28573.941    255.41361     2283.257   -30857.198    -30278.51    255.41361   -1265.6786    92345.414   0.97182764    2425.0427 
  441500      4540000   -28600.056    254.84569    2278.1802   -30878.236   -30870.217    254.84569   -1685.6424    92345.414   0.97182764    2427.3474 
  442000      4545000   -28639.127    252.62498    2258.3282   -30897.455    -30023.65    252.62498   -1028.0381    92345.414   0.97182764    2431.2542 
  442500      4550000   -28515.601    252.14759    2254.0606   -30769.662   -29913.823    252.14759   -1038.2088    92345.414   0.97182764    2433.8918 
  443000      4555000   -28714.301    254.67382    2276.6437   -30990.945   -30409.385    254.67382   -1258.6356    92345.414   0.97182764    2436.3985 
  443500      4560000   -28688.789     243.9175    2180.4881   -30869.277    -30603.49     243.9175   -1421.7055    92345.414   0.97182764    2439.0809 
  444000      4565000   -28762.695    244.22053    2183.1971   -30945.892   -30457.363    244.22053   -1258.3269    92345.414   0.97182764    2441.6736 
  444500      4570000   -28657.178    256.07296    2289.1513    -30946.33   -29811.093    256.07296   -856.80565    92345.414   0.97182764    2444.1269 
  445000      4575000   -28635.789    252.57194    2257.8541   -30893.644   -31086.816    252.57194   -1819.9392    92345.414   0.97182764    2447.0492 
  445500      4580000   -28771.584    244.35601    2184.4082   -30955.992   -30024.578    244.35601   -930.37487    92345.414   0.97182764    2449.5707 
  446000      4585000   -28664.885    254.81994      2277.95   -30942.835   -30380.036    254.81994   -1273.5354    92345.414   0.97182764     2452.128 
  446500      4590000   -28759.743    257.52095    2302.0954   -31061.838   -30424.674    257.52095   -1236.2461    92345.414   0.97182764    2454.7415 
  447000      4595000   -28479.102    258.11679    2307.4219   -30786.524   -29794.517    258.11679   -976.72316    92345.414   0.97182764    2457.4674 
  447500      4600000   -28662.483    254.75379    2277.3586   -30939.841   -30489.533    254.75379   -1356.6237    92345.414   0.97182764    2460.0204 
  448000      4605000   -28673.309    249.30143    2228.6175   -30901.927   -30222.425    249.30143   -1150.2512    92345.414   0.97182764    2462.6304 
  448500      4610000   -28601.639    257.24634    2299.6406   -30901.279   -30304.634    257.24634   -1264.5099    92345.414   0.97182764    2464.9154 
  449000      4615000   -28726.319    250.33224    2237.8324   -30964.152   -30697.561    250.33224   -1463.6883    92345.414   0.97182764    2468.2092 
  449500      4620000   -28675.258    250.97673    2243.5938   -30918.851   -30178.913    250.97673   -1116.4957    92345.414   0.97182764     2470.726 
  450000      4625000   -28602.631     252.7096    2259.0846   -30861.716   -30604.279     252.7096   -1486.2654    92345.414   0.97182764    2473.6849 
  450500      4630000   -28700.422    257.47994    2301.7289   -31002.151   -30191.875    257.47994   -1107.4355    92345.414   0.97182764    2475.9487 
  451000      4635000   -28741.485    250.42126    2238.6282   -30980.113   -30442.443    250.42126   -1262.9977    92345.414   0.97182764    2478.6201 
  451500      4640000   -28679.088    251.35343    2246.9612    -30926.05    -30363.44    251.35343   -1250.6664    92345.414   0.97182764    2481.1581 
  452000      4645000   -28655.291    255.07316    2280.2136   -30935.504   -30062.647    255.07316   -1044.9918    92345.414   0.97182764     2483.993 
  452500      4650000   -28695.864     246.2628    2201.4539   -30897.318   -30879.764     246.2628   -1621.5921    92345.414   0.97182764    2487.7155 
  453000      4655000   -28633.665     252.5183    2257.3745    -30891.04   -30708.344     252.5183   -1540.4928    92345.414   0.97182764    2490.7183 
  453500      4660000     -28636.7    256.54221    2293.3461   -30930.046   -30298.279    256.54221   -1233.7573    92345.414   0.97182764     2493.164 
  454000      4665000   -28734.531    248.19947    2218.7666   -30953.298     -30612.5    248.19947   -1394.4319    92345.414   0.97182764    2495.7204 
  454500      4670000   -28569.361    254.01238    2270.7308   -30840.092   -30449.687    254.01238   -1396.1815    92345.414   0.97182764    2498.3121 
  455000      4675000   -28777.162    251.89964    2251.8441   -31029.006    -30375.99    251.89964   -1187.1637    92345.414   0.97182764    2500.8397 
  455500      4680000   -28690.909    249.36259    2229.1642   -30920.074    -30639.22    249.36259   -1446.6616    92345.414   0.97182764    2504.0686 
  456000      4685000   -28821.684    250.73444    2241.4278   -31063.112   -30285.779    250.73444   -1087.1214    92345.414   0.97182764    2506.5382 
  456500      4690000   -28781.309    244.89764      2189.25   -30970.559   -30469.853    244.89764   -1253.7797    92345.414   0.97182764    2508.8383 
  457000      4695000   -28684.013    256.58206    2293.7024   -30977.715   -30379.859    256.58206   -1259.2015    92345.414   0.97182764    2511.0397 
  457500      4700000   -28715.018    252.27564    2255.2053   -30970.223   -30421.423    252.27564   -1267.0418    92345.414   0.97182764    2513.4638 
  458000      4705000   -28868.114    247.05274    2208.5154    -31076.63   -30861.863    247.05274   -1480.4001    92345.414   0.97182764    2515.6741 
  458500      4710000   -28835.337    242.23938    2165.4867   -31000.823   -30727.635    242.23938    -1405.071    92345.414   0.97182764    2518.0047 
  459000      4715000    -28748.09    252.82768    2260.1403    -31008.23   -30609.854    252.82768   -1382.3989    92345.414   0.97182764    2520.2272 
  459500      4720000   -28713.174    259.92583    2323.5938   -31036.768   -30561.363    259.92583   -1372.3194    92345.414   0.97182764    2522.5888 
  460000      4725000   -28662.534    253.06105    2262.2265    -30924.76   -30237.514    253.06105   -1169.4562    92345.414   0.97182764    2525.1042 
  460500      4730000   -28746.261    249.79892    2233.0648   -30979.326   -30424.519    249.79892   -1246.1419    92345.414   0.97182764    2527.7244 
  461000      4735000   -28704.514    255.24001    2281.7051   -30986.219   -30515.735    255.24001   -1344.8699    92345.414   0.97182764     2530.176 
  461500      4740000   -28798.322    252.53707    2257.5423   -31055.864   -30417.801    252.53707   -1202.4976    92345.414   0.97182764     2532.354 
  462000      4745000    -28742.64    248.50834    2221.5277   -30964.168   -30676.505    248.50834   -1435.9352    92345.414   0.97182764     2534.685 
  462500      4750000    -28811.37     251.2682    2246.1994   -31057.569   -30209.987     251.2682   -1038.5029    92345.414   0.97182764    2537.0032 
  463000      4755000   -28831.108    249.91491    2234.1017    -31065.21   -30889.954    249.91491   -1528.7365    92345.414   0.97182764    2539.4319 
  463500      4760000   -28761.239    249.20043    2227.7147   -30988.954   -30313.219    249.20043   -1152.3782    92345.414   0.97182764    2542.2328 
  464000      4765000   -28773.856    247.10003    2208.9382   -30982.794   -30423.967    247.10003    -1225.242    92345.414   0.97182764     2544.593 
  464500      4770000   -28876.327    246.92663    2207.3881   -31083.715   -31188.344    246.92663   -1716.7215    92345.414   0.97182764    2546.9081 
  465000      4775000   -28737.526    254.49832    2275.0749   -31012.601   -30437.414    254.49832    -1262.202    92345.414   0.97182764    2549.4817 
  465500      4780000   -28685.461    251.51172    2248.3763   -30933.837   -30532.813    251.51172   -1371.6981    92345.414   0.97182764    2552.1867 
  466000      4785000   -28788.599    249.24898    2228.1486   -31016.747   -30561.677    249.24898   -1316.5479    92345.414   0.97182764    2554.6935 
  466500      4790000   -28799.772    245.80781    2197.3865   -30997.158   -30935.787    245.80781   -1586.0358    92345.414   0.97182764    2559.1139 
  467000      4795000   -28805.753    241.44823    2158.4142   -30964.167   -30866.905    241.44823   -1530.4488    92345.414   0.97182764    2561.6817 
  467500      4800000   -28801.047    250.15595    2236.2564   -31037.303   -30871.106    250.15595   -1537.0626    92345.414   0.97182764    2563.8686 
  468000      4805000   -28690.268    250.87753     2242.707   -30932.975   -30432.027    250.87753   -1293.2923    92345.414   0.97182764    2566.3536 
  468500      4810000   -28785.939    251.23149    2245.8712    -31031.81   -31017.809    251.23149   -1657.2105    92345.414   0.97182764    2570.0738 
  469000      4815000   -28801.005    245.10844    2191.1345    -30992.14   -30643.561    245.10844   -1368.1366    92345.414   0.97182764    2573.7443 
  469500      4820000   -28723.149    248.18541    2218.6409    -30941.79   -30463.811    248.18541   -1292.4783    92345.414   0.97182764    2576.8527 
  470000      4825000     -28804.5    254.74683    2277.2963   -31081.796   -30420.926    254.74683   -1200.2307    92345.414   0.97182764    2579.2395 
  470500      4830000   -28820.044    250.78413     2241.872   -31061.916   -30634.595    250.78413   -1347.3423    92345.414   0.97182764     2581.461 
  471000      4835000   -28780.682    246.98281    2207.8903   -30988.573   -30410.647    246.98281   -1210.2833    92345.414   0.97182764    2583.6828 
  471500      4840000   -28868.041    246.01278    2199.2188    -31067.26   -30614.659    246.01278   -1296.9007    92345.414   0.97182764    2586.0771 
  472000      4845000   -28858.396    245.00821    2190.2385   -31048.635   -30436.596    245.00821   -1171.8461    92345.414   0.97182764    2588.6832 
  472500      4850000   -28820.469    242.75443    2170.0909    -30990.56   -30908.384    242.75443   -1550.3207    92345.414   0.97182764    2592.0186 
  473000      4855000   -28760.622    245.36356    2193.4151   -30954.038    -30549.22    245.36356    -1328.071    92345.414   0.97182764    2595.7783 
  473500      4860000   -28818.522    244.63641    2186.9148   -31005.437   -29880.893    244.63641    -788.8327    92345.414   0.97182764    2599.5212 
  474000      4865000   -28779.477    247.91955    2216.2642   -30995.742    -30223.78    247.91955   -1072.4253    92345.414   0.97182764    2601.8765 
  474500      4870000   -28868.403    234.97881    2100.5812   -30968.984   -31109.227    234.97881   -1663.8593    92345.414   0.97182764    2604.1907 
  475000      4875000    -28821.77    246.52439    2203.7923   -31025.562   -30059.991    246.52439   -919.40508    92345.414   0.97182764    2606.9758 
  475500      4880000   -28750.699    247.95386    2216.5709    -30967.27   -30037.254    247.95386   -955.29382    92345.414   0.97182764    2609.2242 
  476000      4885000   -28734.671    250.68708    2241.0045   -30975.676   -30632.443    250.68708   -1409.1359    92345.414   0.97182764    2612.1566 
  476500      4890000   -28807.139    247.39945    2211.6148   -31018.754   -30400.235    247.39945   -1182.9079    92345.414   0.97182764    2614.8848 
  477000      4895000   -28855.031    242.06924    2163.9657   -31018.996   -30585.094    242.06924   -1284.6082    92345.414   0.97182764     2617.508 
  477500      4900000   -28835.046    246.51842     2203.739   -31038.785   -30861.666    246.51842   -1504.8083    92345.414   0.97182764    2619.6605 
  478000      4905000   -28754.524    254.31394    2273.4266    -31027.95   -30682.591    254.31394   -1431.6305    92345.414   0.97182764    2621.8323 
  478500      4910000   -28920.719    245.50372     2194.668   -31115.387   -30662.207    245.50372   -1293.0922    92345.414   0.97182764    2623.9555 
  479000      4915000   -28890.607    248.83947    2224.4878   -31115.095   -30127.133    248.83947   -918.14662    92345.414   0.97182764    2626.2037 
  479500      4920000   -28826.157    245.09711    2191.0332    -31017.19   -31057.657    245.09711   -1656.9354    92345.414   0.97182764    2628.3124 
  480000      4925000   -28897.157    246.93271    2207.4424     -31104.6   -31004.313    246.93271   -1564.6073    92345.414   0.97182764    2630.4534 
  480500      4930000   -28742.591    249.85666    2233.5809   -30976.172   -30286.249    249.85666   -1146.1989    92345.414   0.97182764    2632.6417 
  481000      4935000   -28758.688    248.23934     2219.123   -30977.811    -30382.99    248.23934   -1206.0787    92345.414   0.97182764    2634.8706 
  481500      4940000   -28856.685    242.14829    2164.6724   -31021.357   -31216.164    242.14829   -1751.9626    92345.414   0.97182764    2637.1729 
  482000      4945000   -29005.805    238.68997    2133.7569   -31139.562   -30664.046    238.68997   -1231.2786    92345.414   0.97182764     2640.264 
  482500      4950000   -28866.306    249.79976    2233.0723   -31099.378   -30653.157    249.79976   -1326.7744    92345.414   0.97182764    2644.4899 
  483000      4955000   -28818.452    243.80637    2179.4947   -30997.947   -30590.511    243.80637   -1315.7909    92345.414   0.97182764    2647.9872 
  483500      4960000   -28891.852    243.63456    2177.9588   -31069.811   -30809.091    243.63456   -1423.5905    92345.414   0.97182764    2650.4544 
  484000      4965000   -28784.326     248.9295    2225.2927   -31009.619   -30574.876     248.9295   -1329.5212    92345.414   0.97182764    2652.7362 
  484500      4970000   -28853.485    248.08953    2217.7837   -31071.269   -30642.389    248.08953   -1328.2989    92345.414   0.97182764    2655.0236 
  485000      4975000   -28862.264    245.04661    2190.5818   -31052.846   -30499.186    245.04661   -1215.4487    92345.414   0.97182764     2657.213 
  485500      4980000   -28899.041    248.24632    2219.1854   -31118.226   -30969.704    248.24632    -1537.511    92345.414   0.97182764    2659.9207 
  486000      4985000   -28868.632    248.45438    2221.0453   -31089.677   -31120.361    248.45438   -1671.9561    92345.414   0.97182764    2662.1841 
  486500      4990000   -28813.076    245.48299    2194.4827   -31007.558   -30421.868    245.48299   -1194.5621    92345.414   0.97182764    2664.4655 
  487000      4995000   -28788.053    247.76797    2214.9092   -31002.962   -31000.759    247.76797   -1642.9808    92345.414   0.97182764    2666.6658 
  487500      5000000   -28935.508     244.5676    2186.2997   -31121.808   -30604.449     244.5676   -1239.2236    92345.414   0.97182764    2668.8796 
  488000      5005000   -28843.143      244.491    2185.6149   -31028.757   -30204.601      244.491   -1010.9114    92345.414   0.97182764    2671.0892 
  488500      5010000   -28833.876    243.86168    2179.9892   -31013.865   -30259.397    243.86168   -1058.4792    92345.414   0.97182764     2673.306 
  489000      5015000   -28900.103     245.4447    2194.1405   -31094.243   -30710.694     245.4447    -1344.402    92345.414   0.97182764    2675.5801 
  489500      5020000   -28991.403    243.29488    2174.9222   -31166.325   -30806.627    243.29488   -1347.8418    92345.414   0.97182764    2677.7407 
  490000      5025000   -28979.642     245.1362    2191.3827   -31171.024   -30577.137     245.1362   -1186.1737    92345.414   0.97182764    2679.9361 
  490500      5030000   -28887.138    240.93467    2153.8233   -31040.961   -30165.202    240.93467    -948.9894    92345.414   0.97182764    2682.0746 
  491000      5035000   -28894.605    246.66135    2205.0166   -31099.622   -30806.202    246.66135   -1419.4008    92345.414   0.97182764    2684.2955 
  491500      5040000   -29021.057    243.37424    2175.6317   -31196.688   -30593.839    243.37424   -1167.8237    92345.414   0.97182764    2686.5365 
  492000      5045000   -28923.806    248.28034    2219.4895   -31143.295    -30403.83    248.28034   -1098.9494    92345.414   0.97182764    2688.6686 
  492500      5050000   -28938.366    244.88981    2189.1801   -31127.546   -30455.957    244.88981    -1126.843    92345.414   0.97182764     2690.827 
  493000      5055000   -28953.007    248.89691    2225.0014   -31178.009   -30548.485    248.89691   -1184.6756    92345.414   0.97182764    2693.0147 
  493500      5060000   -28887.876    248.41866     2220.726   -31108.602   -30479.421    248.41866   -1181.7556    92345.414   0.97182764    2695.1787 
  494000      5065000   -29027.936    247.26135    2210.3803   -31238.316   -30654.707    247.26135   -1207.9118    92345.414   0.97182764    2697.3925 
  494500      5070000   -29085.324    241.17198    2155.9447   -31241.269    -30532.16    241.17198   -1074.3056    92345.414   0.97182764    2699.5246 
  495000      5075000   -28889.111    245.82039     2197.499    -31086.61   -30545.682    245.82039   -1230.0384    92345.414   0.97182764     2701.651 
  495500      5080000   -29031.276    248.34644    2220.0804   -31251.356   -30868.342    248.34644   -1364.0603    92345.414   0.97182764    2703.7861 
  496000      5085000   -28937.709    242.06466    2163.9248   -31101.633   -30886.534    242.06466   -1447.0443    92345.414   0.97182764    2705.9311 
  496500      5090000   -28934.762    248.01672    2217.1329   -31151.895   -30428.466    248.01672   -1109.1065    92345.414   0.97182764     2708.056 
  497000      5095000    -28968.55    243.71258    2178.6562   -31147.206   -30896.697    243.71258   -1431.6902    92345.414   0.97182764    2710.1843 
  497500      5100000   -29072.211    237.38451    2122.0868   -31194.298   -31064.203    237.38451   -1479.0963    92345.414   0.97182764    2712.2911 
  498000      5105000   -28982.064    244.79802    2188.3595   -31170.424   -30641.176    244.79802   -1231.9253    92345.414   0.97182764    2714.5101 
  498500      5110000   -28755.509    247.96019    2216.6275   -30972.137   -30481.569    247.96019   -1281.6358    92345.414   0.97182764    2716.8703 
  499000      5115000   -28952.094      245.984    2198.9615   -31151.056   -30677.811      245.984   -1281.3808    92345.414   0.97182764    2719.1349 
  499500      5120000   -28936.471    242.98969     2172.194   -31108.665   -31235.827    242.98969   -1707.3206    92345.414   0.97182764    2721.2996 
  500000      5125000    -29020.62    240.83109    2152.8973   -31173.518   -30946.293    240.83109   -1429.8521    92345.414   0.97182764    2723.4859 
Loop time of 2723.49 on 2 procs for 500000 steps with 3000 atoms

Performance: 158.620 ns/day, 0.151 hours/ns, 183.588 timesteps/s
93.2% CPU use with 2 MPI tasks x no OpenMP threads

MPI task timing breakdown:
Section |  min time  |  avg time  |  max time  |%varavg| %total
---------------------------------------------------------------
Pair    | 2438.8     | 2441.9     | 2445       |   6.3 | 89.66
Neigh   | 144.99     | 145.44     | 145.9      |   3.8 |  5.34
Comm    | 106.76     | 109.3      | 111.85     |  24.4 |  4.01
Output  | 0.5553     | 0.57327    | 0.59125    |   2.4 |  0.02
Modify  | 22.375     | 22.499     | 22.624     |   2.6 |  0.83
Other   |            | 3.774      |            |       |  0.14

Nlocal:    1500 ave 1508 max 1492 min
Histogram: 1 0 0 0 0 0 0 0 0 1
Nghost:    2248.5 ave 2275 max 2222 min
Histogram: 1 0 0 0 0 0 0 0 0 1
Neighs:    0 ave 0 max 0 min
Histogram: 2 0 0 0 0 0 0 0 0 0
FullNghs:  44263 ave 44554 max 43972 min
Histogram: 1 0 0 0 0 0 0 0 0 1

Total # of neighbors = 88526
Ave neighs/atom = 29.5087
Neighbor list builds = 50000
Dangerous builds = 50000

Total wall time: 0:47:51
