LAMMPS data file. CGCMM style. atom_style atomic generated by VMD/TopoTools v1.7 on Thu Nov 15 11:34:28 GMT 2018
 6500 atoms
 0 bonds
 0 angles
 0 dihedrals
 0 impropers
 2 atom types
 0 bond types
 0 angle types
 0 dihedral types
 0 improper types
 -9.348000 34.709999  xlo xhi
 3.516327 41.671673  ylo yhi
 -22.398000 127.602000  zlo zhi
 -22.028999 0.000000 0.000000 xy xz yz

# Pair Coeffs
#
# 1  1
# 2  2

 Masses

 1 15.999400 # 1
 2 15.999400 # 2

 Atoms # atomic

1 1 14.251000 35.429001 65.852997 # 1
2 1 43.154999 21.808001 67.671997 # 1
3 1 5.711000 4.862000 77.737999 # 1
4 1 10.924000 29.459000 63.450001 # 1
5 1 32.286999 4.731000 60.154999 # 1
6 1 20.849001 34.320000 61.881001 # 1
7 1 43.839001 19.591000 69.389000 # 1
8 1 2.182000 26.594999 70.895996 # 1
9 1 41.380001 4.602000 68.201996 # 1
10 1 27.556000 1.535000 76.852005 # 1
11 1 8.207000 22.788000 74.201996 # 1
12 1 45.058998 28.886000 63.956001 # 1
13 1 28.684999 31.474001 70.902000 # 1
14 1 21.106001 2.551000 67.013000 # 1
15 1 31.233999 4.565000 61.771000 # 1
16 1 12.476000 25.948999 74.798004 # 1
17 1 21.420000 2.957000 62.074001 # 1
18 1 38.773998 3.124000 67.486000 # 1
19 1 23.565001 28.240000 77.313995 # 1
20 1 5.156000 3.882000 77.255997 # 1
21 1 29.368999 34.966999 67.110001 # 1
22 1 17.077000 11.312000 77.550995 # 1
23 1 38.276001 18.907000 72.596001 # 1
24 1 26.356001 31.639999 64.354004 # 1
25 1 3.975000 32.472000 74.003998 # 1
26 1 35.299000 5.693000 67.175995 # 1
27 1 26.077999 12.937000 69.981003 # 1
28 1 39.570999 37.665001 63.382000 # 1
29 1 35.484001 6.525000 75.576004 # 1
30 1 5.768000 32.768002 73.768997 # 1
31 1 17.761000 13.122000 66.257996 # 1
32 1 2.200000 12.753000 71.404999 # 1
33 1 43.303001 23.176001 70.699997 # 1
34 1 18.500999 22.695999 75.188004 # 1
35 1 23.157000 7.134000 62.117001 # 1
36 1 39.624001 1.498000 77.589005 # 1
37 1 8.965000 34.080002 75.373001 # 1
38 1 1.774000 0.629000 73.082001 # 1
39 1 21.680000 31.011999 71.376999 # 1
40 1 15.285000 16.634001 72.763000 # 1
41 1 31.475000 20.329000 60.866001 # 1
42 1 6.395000 10.535000 70.652000 # 1
43 1 13.122000 9.907000 73.095001 # 1
44 1 33.987000 7.781000 63.570999 # 1
45 1 7.819000 30.476000 72.332001 # 1
46 1 35.521999 25.264000 69.494003 # 1
47 1 5.306000 33.543999 70.443001 # 1
48 1 25.653999 32.380001 77.305000 # 1
49 1 8.428000 6.099000 71.037003 # 1
50 1 44.320000 34.616001 64.460999 # 1
51 1 28.830999 9.777000 64.445999 # 1
52 1 39.847000 18.371000 77.749001 # 1
53 1 11.348000 9.020000 77.716003 # 1
54 1 41.659000 36.278999 67.910004 # 1
55 1 16.985001 17.170000 73.050003 # 1
56 1 43.099998 24.247999 67.358002 # 1
57 1 7.764000 27.704000 66.731995 # 1
58 1 23.954000 34.522999 62.929001 # 1
59 1 15.728000 6.783000 73.490005 # 1
60 1 44.891998 21.531000 74.789001 # 1
61 1 33.710999 26.965000 74.300995 # 1
62 1 31.106001 29.330000 61.547001 # 1
63 1 31.919001 38.423000 69.941002 # 1
64 1 1.018000 20.052000 65.682999 # 1
65 1 19.535999 28.091999 61.140999 # 1
66 1 3.975000 33.432999 60.779999 # 1
67 1 0.499000 7.523000 71.283005 # 1
68 1 11.220000 35.632000 67.776001 # 1
69 1 35.577999 24.728001 67.972000 # 1
70 1 41.436001 12.106000 65.272003 # 1
71 1 2.699000 6.450000 65.479996 # 1
72 1 35.874001 30.532000 74.240997 # 1
73 1 38.535999 38.811001 67.546997 # 1
74 1 3.789000 6.081000 69.236000 # 1
75 1 24.875999 9.500000 70.404999 # 1
76 1 14.157000 10.146000 61.641998 # 1
77 1 0.261000 37.110001 62.550999 # 1
78 1 1.776000 36.187000 74.084000 # 1
79 1 14.916000 24.377001 71.878998 # 1
80 1 12.328000 15.469000 70.641998 # 1
81 1 27.521000 35.355999 76.261002 # 1
82 1 20.737000 16.671000 73.464996 # 1
83 1 37.832001 21.365000 69.876999 # 1
84 1 29.995001 7.116000 69.016998 # 1
85 1 8.558000 19.719999 65.569000 # 1
86 1 10.165000 4.362000 61.316002 # 1
87 1 16.431000 20.459000 66.466995 # 1
88 1 40.290001 7.670000 66.602005 # 1
89 1 10.054000 6.469000 75.262001 # 1
90 1 25.726000 1.867000 71.229004 # 1
91 1 15.026000 17.354000 67.434998 # 1
92 1 5.620000 26.742001 62.540001 # 1
93 1 38.571999 30.549999 64.505005 # 1
94 1 22.437000 21.254000 76.987999 # 1
95 1 14.139000 12.050000 66.699997 # 1
96 1 20.313000 29.070999 60.606998 # 1
97 1 22.141001 9.685000 68.347000 # 1
98 1 4.327000 37.074001 65.905998 # 1
99 1 33.027000 24.580999 72.263000 # 1
100 1 41.362999 26.909000 72.221001 # 1
101 1 1.812000 22.066999 69.155998 # 1
102 1 23.879000 14.693000 64.018005 # 1
103 1 3.680000 32.988998 67.190002 # 1
104 1 15.026000 12.254000 77.908997 # 1
105 1 35.189999 33.027000 71.067001 # 1
106 1 41.547001 27.039000 76.141998 # 1
107 1 24.783001 0.075000 72.714996 # 1
108 1 13.271000 18.334000 71.692001 # 1
109 1 30.493999 0.592000 72.429001 # 1
110 1 37.073002 2.828000 74.106995 # 1
111 1 33.268002 31.695999 67.802002 # 1
112 1 4.048000 4.140000 64.634003 # 1
113 1 10.703000 37.036999 65.486000 # 1
114 1 33.507999 29.570999 71.066002 # 1
115 1 31.087000 32.306000 69.140999 # 1
116 1 28.572001 5.859000 67.162994 # 1
117 1 38.701000 21.309000 64.826996 # 1
118 1 1.276000 15.433000 75.169998 # 1
119 1 15.599000 21.790001 75.539001 # 1
120 1 36.353001 1.128000 74.091995 # 1
121 1 43.580002 18.648001 72.806000 # 1
122 1 27.556000 8.631000 64.055000 # 1
123 1 30.476999 25.393000 63.331001 # 1
124 1 35.058998 5.083000 70.122002 # 1
125 1 12.901000 20.183001 77.287994 # 1
126 1 32.897999 17.077000 61.912998 # 1
127 1 34.264000 1.201000 60.118999 # 1
128 1 37.868999 14.822000 65.970001 # 1
129 1 6.045000 26.132999 62.437000 # 1
130 1 2.164000 33.840000 72.388000 # 1
131 1 41.584000 21.384001 75.742004 # 1
132 1 10.775000 13.936000 77.647995 # 1
133 1 24.542999 5.212000 61.785000 # 1
134 1 28.223000 35.097000 77.127998 # 1
135 1 38.720001 34.283001 63.266998 # 1
136 1 4.196000 12.900000 69.653999 # 1
137 1 3.845000 12.476000 72.136002 # 1
138 1 0.074000 4.639000 65.235001 # 1
139 1 28.500000 28.368999 66.281998 # 1
140 1 3.549000 5.600000 63.330002 # 1
141 1 16.208000 0.092000 60.155998 # 1
142 1 28.313999 10.960000 71.494003 # 1
143 1 5.951000 1.516000 71.070999 # 1
144 1 40.123001 0.075000 70.527000 # 1
145 1 33.748001 20.422001 70.393997 # 1
146 1 4.900000 33.598999 66.567001 # 1
147 1 1.109000 8.428000 67.813004 # 1
148 1 28.517000 6.118000 70.141998 # 1
149 1 13.955000 26.521000 67.735001 # 1
150 1 43.672001 7.209000 73.964005 # 1
151 1 2.109000 30.642000 60.851002 # 1
152 1 31.254000 31.584999 68.082001 # 1
153 1 27.094000 3.235000 68.667999 # 1
154 1 36.464001 11.292000 61.000999 # 1
155 1 0.241000 18.796000 67.675995 # 1
156 1 24.989000 33.027000 76.951996 # 1
157 1 13.401000 37.960999 75.502998 # 1
158 1 22.493000 22.566000 65.749001 # 1
159 1 36.576000 24.230000 74.194000 # 1
160 1 1.405000 7.116000 70.632996 # 1
161 1 27.834000 16.098000 68.473999 # 1
162 1 38.681999 7.079000 64.821999 # 1
163 1 16.357000 12.013000 64.903999 # 1
164 1 16.837999 22.030001 69.964005 # 1
165 1 33.599998 20.440001 60.078999 # 1
166 1 24.563999 36.889000 76.298004 # 1
167 1 36.483002 23.952000 69.264999 # 1
168 1 15.099000 1.683000 73.223999 # 1
169 1 31.492001 8.298000 60.025002 # 1
170 1 36.889000 14.268000 66.563004 # 1
171 1 14.841000 16.577999 66.915001 # 1
172 1 22.124001 37.368999 60.435001 # 1
173 1 41.473000 14.767000 62.006001 # 1
174 1 35.283001 34.228001 71.138000 # 1
175 1 39.219002 38.220001 68.884995 # 1
176 1 38.459999 15.784000 77.274002 # 1
177 1 11.902000 0.925000 68.703995 # 1
178 1 25.986000 16.856001 75.682999 # 1
179 1 6.452000 38.164001 68.139999 # 1
180 1 31.992001 16.061001 78.216003 # 1
181 1 1.831000 27.924999 64.147003 # 1
182 1 0.630000 35.835999 70.285004 # 1
183 1 32.917000 33.784000 73.412994 # 1
184 1 15.156000 23.823000 66.882996 # 1
185 1 33.598999 6.783000 66.509995 # 1
186 1 24.063000 1.535000 72.427002 # 1
187 1 43.230000 36.426998 61.297001 # 1
188 1 3.401000 10.757000 75.033005 # 1
189 1 44.189999 29.090000 76.400002 # 1
190 1 43.967999 24.709999 67.757996 # 1
191 1 43.191002 9.222000 62.851002 # 1
192 1 40.789001 17.372999 74.591995 # 1
193 1 14.990000 32.546001 74.899002 # 1
194 1 22.271999 36.612000 74.636002 # 1
195 1 18.945000 36.778000 72.660995 # 1
196 1 25.653999 33.895000 61.166000 # 1
197 1 23.379000 10.073000 70.166000 # 1
198 1 44.930000 37.388000 67.520996 # 1
199 1 7.818000 10.812000 69.484001 # 1
200 1 1.423000 3.457000 74.806000 # 1
201 1 36.925999 6.284000 62.063000 # 1
202 1 7.671000 18.889000 74.005997 # 1
203 1 29.570999 25.948000 71.375000 # 1
204 1 10.443000 13.732000 63.897999 # 1
205 1 27.131001 5.397000 76.196999 # 1
206 1 27.482000 3.549000 77.494995 # 1
207 1 7.653000 35.060001 77.598000 # 1
208 1 37.462002 5.601000 78.182999 # 1
209 1 2.293000 29.663000 70.602005 # 1
210 1 41.619999 9.111000 61.098000 # 1
211 1 9.943000 3.013000 61.252998 # 1
212 1 3.457000 13.474000 72.752998 # 1
213 1 26.670000 20.662001 62.067001 # 1
214 1 24.746000 0.943000 73.764999 # 1
215 1 1.590000 17.096001 71.794998 # 1
216 1 28.665001 7.337000 65.776001 # 1
217 1 9.705000 32.379002 61.858002 # 1
218 1 6.488000 10.423000 61.278000 # 1
219 1 15.600000 27.316000 71.001999 # 1
220 1 16.079000 8.650000 71.600998 # 1
221 1 40.033001 37.904999 61.363998 # 1
222 1 33.693001 31.604000 73.150002 # 1
223 1 6.230000 25.523001 70.244003 # 1
224 1 39.514000 27.648001 63.183998 # 1
225 1 8.614000 33.969002 68.031998 # 1
226 1 11.349000 18.260000 69.992004 # 1
227 1 33.693001 24.247999 62.792000 # 1
228 1 27.243999 38.292999 66.167999 # 1
229 1 44.504002 18.702999 62.833000 # 1
230 1 8.393000 37.462002 75.197998 # 1
231 1 9.612000 33.747002 72.796005 # 1
232 1 5.047000 32.971001 71.917000 # 1
233 1 21.865000 28.665001 63.803001 # 1
234 1 20.275000 13.270000 75.755005 # 1
235 1 12.216000 6.266000 70.509003 # 1
236 1 20.773001 10.128000 69.556999 # 1
237 1 42.895000 7.097000 61.761002 # 1
238 1 0.260000 23.120001 62.560001 # 1
239 1 43.487999 35.429001 68.082001 # 1
240 1 32.842999 27.889000 66.612999 # 1
241 1 44.244999 21.198000 64.520004 # 1
242 1 8.539000 8.798000 72.686005 # 1
243 1 41.435001 3.641000 60.743000 # 1
244 1 31.603001 2.865000 63.568001 # 1
245 1 4.050000 38.071999 66.014999 # 1
246 1 30.496000 27.408001 70.360001 # 1
247 1 44.134998 26.226000 71.285995 # 1
248 1 35.948002 38.645000 69.382004 # 1
249 1 13.271000 28.646000 66.503998 # 1
250 1 12.754000 28.573000 71.987000 # 1
251 1 6.637000 37.924000 74.003998 # 1
252 1 37.519001 38.756001 71.134003 # 1
253 1 31.419001 8.706000 77.292999 # 1
254 1 11.423000 32.877998 63.617001 # 1
255 1 22.603001 9.981000 74.209000 # 1
256 1 5.675000 28.812000 63.660999 # 1
257 1 9.610000 2.237000 75.029999 # 1
258 1 6.784000 25.190001 61.280998 # 1
259 1 35.818001 17.391001 65.949005 # 1
260 1 27.908001 29.423000 68.901001 # 1
261 1 11.220000 28.296000 73.664001 # 1
262 1 10.296000 33.747002 62.854000 # 1
263 1 22.326000 11.569000 63.036999 # 1
264 1 30.070999 31.492001 60.368000 # 1
265 1 25.486000 9.795000 61.970001 # 1
266 1 1.610000 34.431000 63.647999 # 1
267 1 13.733000 22.437000 73.880997 # 1
268 1 3.809000 34.855999 66.318001 # 1
269 1 14.140000 33.895000 66.253998 # 1
270 1 14.989000 7.670000 66.764999 # 1
271 1 39.903000 29.903000 61.808998 # 1
272 1 2.959000 28.370001 74.354996 # 1
273 1 24.600000 23.323999 68.455002 # 1
274 1 18.944000 5.120000 67.500000 # 1
275 1 3.162000 20.552000 72.304001 # 1
276 1 19.443001 8.687000 75.061996 # 1
277 1 15.360000 38.331001 78.203003 # 1
278 1 14.453000 9.444000 69.427002 # 1
279 1 0.260000 17.687000 66.611000 # 1
280 1 25.708000 8.558000 75.636002 # 1
281 1 5.565000 33.044998 66.432999 # 1
282 1 4.105000 33.174000 71.081001 # 1
283 1 39.772999 19.443001 67.005005 # 1
284 1 27.150000 17.982000 60.334999 # 1
285 1 45.151001 27.445000 69.749001 # 1
286 1 27.150999 29.478001 73.443001 # 1
287 1 40.585999 13.695000 63.535000 # 1
288 1 41.917000 27.427000 75.132004 # 1
289 1 35.171001 21.716000 63.882000 # 1
290 1 40.844002 2.144000 68.598999 # 1
291 1 19.499001 20.792000 72.451996 # 1
292 1 4.289000 22.659000 73.766998 # 1
293 1 24.285000 8.354000 60.071999 # 1
294 1 7.282000 3.696000 61.680000 # 1
295 1 21.531000 7.245000 71.709999 # 1
296 1 6.081000 6.857000 60.103001 # 1
297 1 28.888000 36.537998 74.671997 # 1
298 1 23.934000 9.832000 60.717999 # 1
299 1 25.025999 33.266998 70.071999 # 1
300 1 4.215000 13.233000 69.181999 # 1
301 1 0.925000 18.629999 74.949997 # 1
302 1 13.050000 35.946999 69.998001 # 1
303 1 8.835000 11.514000 62.495998 # 1
304 1 5.655000 3.475000 64.849998 # 1
305 1 24.709999 5.563000 63.263000 # 1
306 1 11.515000 18.371000 64.561005 # 1
307 1 44.763000 27.924999 64.916000 # 1
308 1 23.898001 29.662001 60.137001 # 1
309 1 25.561001 28.517000 66.710999 # 1
310 1 2.367000 20.070999 68.938004 # 1
311 1 10.960000 17.021999 66.022995 # 1
312 1 36.278999 5.656000 77.863998 # 1
313 1 38.738998 36.723000 76.233002 # 1
314 1 10.610000 32.028000 69.087997 # 1
315 1 36.761002 37.000000 77.027000 # 1
316 1 32.139000 5.748000 69.108002 # 1
317 1 27.539000 28.702000 63.487999 # 1
318 1 10.461000 16.080000 77.349998 # 1
319 1 26.153000 37.498001 60.361000 # 1
320 1 18.464001 26.725000 75.966995 # 1
321 1 26.466000 8.317000 72.065002 # 1
322 1 32.435001 6.063000 71.548996 # 1
323 1 10.054000 1.109000 62.581001 # 1
324 1 41.862000 28.184000 67.316002 # 1
325 1 27.962999 11.588000 60.264999 # 1
326 1 43.653000 3.254000 77.137001 # 1
327 1 35.596001 24.451000 62.535000 # 1
328 1 40.973999 17.760000 60.808998 # 1
329 1 23.509001 10.277000 78.037994 # 1
330 1 22.270000 10.202000 66.395996 # 1
331 1 4.400000 18.667000 77.903000 # 1
332 1 12.200000 32.009998 72.798004 # 1
333 1 2.255000 9.851000 74.147995 # 1
334 1 31.753000 32.766998 63.662998 # 1
335 1 23.066999 37.646999 75.087006 # 1
336 1 27.704000 4.566000 71.134995 # 1
337 1 44.763000 29.921000 62.592999 # 1
338 1 13.308000 31.862000 60.324001 # 1
339 1 41.509998 20.829000 65.376999 # 1
340 1 25.562000 34.709000 75.018997 # 1
341 1 18.280001 37.924000 61.514000 # 1
342 1 38.590000 25.080000 70.028000 # 1
343 1 31.417999 5.212000 71.141998 # 1
344 1 12.789000 5.249000 66.417999 # 1
345 1 11.774000 27.408001 67.615997 # 1
346 1 40.974998 33.581001 75.695000 # 1
347 1 24.823000 37.868000 64.514999 # 1
348 1 44.780998 10.368000 68.611000 # 1
349 1 24.285000 15.931000 61.092999 # 1
350 1 19.608999 2.108000 72.117996 # 1
351 1 29.275000 18.240999 66.942001 # 1
352 1 39.662998 30.882999 72.740997 # 1
353 1 12.568000 15.894000 68.668999 # 1
354 1 21.771999 16.412001 72.806999 # 1
355 1 4.768000 3.290000 69.887001 # 1
356 1 37.667000 37.610001 71.033005 # 1
357 1 25.448999 0.777000 74.145996 # 1
358 1 31.753000 38.441002 66.520004 # 1
359 1 10.074000 37.055000 70.992004 # 1
360 1 20.348000 5.859000 70.796997 # 1
361 1 16.634001 19.572001 68.837006 # 1
362 1 32.084000 18.500000 63.605000 # 1
363 1 20.625999 20.811001 76.723000 # 1
364 1 38.775002 27.611000 61.317001 # 1
365 1 37.205002 38.570999 66.736000 # 1
366 1 24.191999 8.594000 60.594002 # 1
367 1 42.507000 8.187000 61.891998 # 1
368 1 16.099001 28.277000 75.919998 # 1
369 1 4.621000 17.687000 73.865005 # 1
370 1 15.433000 17.207001 71.796997 # 1
371 1 39.847000 22.584000 63.768002 # 1
372 1 15.451000 5.970000 74.949005 # 1
373 1 23.362000 28.368999 62.584000 # 1
374 1 41.473999 32.952999 72.626999 # 1
375 1 44.909000 1.257000 60.082001 # 1
376 1 5.859000 4.029000 67.813995 # 1
377 1 27.094000 8.760000 64.130005 # 1
378 1 18.464001 22.066999 67.765999 # 1
379 1 32.786999 24.469000 64.414001 # 1
380 1 41.842999 24.507000 69.031998 # 1
381 1 31.051001 38.109001 76.933998 # 1
382 1 1.738000 20.681000 63.162998 # 1
383 1 39.180000 2.458000 66.397003 # 1
384 1 33.562000 4.399000 68.318001 # 1
385 1 3.069000 23.250000 68.074997 # 1
386 1 7.152000 2.809000 65.574997 # 1
387 1 21.846001 16.024000 71.785004 # 1
388 1 23.157000 7.246000 77.876999 # 1
389 1 21.014999 37.646000 64.057999 # 1
390 1 24.083000 31.105000 73.501999 # 1
391 1 26.705999 17.669001 72.191002 # 1
392 1 4.787000 4.362000 65.528000 # 1
393 1 44.153000 19.812000 65.421005 # 1
394 1 13.289000 9.648000 69.606995 # 1
395 1 38.831001 30.162001 76.255005 # 1
396 1 31.936001 12.273000 77.959999 # 1
397 1 0.444000 2.477000 69.462006 # 1
398 1 25.117001 11.700000 75.446999 # 1
399 1 0.851000 20.219000 69.656998 # 1
400 1 41.362000 21.882000 65.964005 # 1
401 1 38.757000 35.651001 66.803001 # 1
402 1 37.556000 37.646000 63.175999 # 1
403 1 32.917000 28.572001 68.126999 # 1
404 1 43.967999 12.217000 76.240005 # 1
405 1 33.268002 22.177999 76.984001 # 1
406 1 40.898998 0.167000 66.485001 # 1
407 1 4.917000 11.774000 76.363998 # 1
408 1 42.931999 6.248000 76.956001 # 1
409 1 25.782000 18.056000 63.488998 # 1
410 1 8.873000 31.382000 66.830002 # 1
411 1 23.028999 21.955999 65.138000 # 1
412 1 12.920000 22.233999 75.951996 # 1
413 1 38.294998 28.202999 65.856995 # 1
414 1 8.095000 11.384000 61.116001 # 1
415 1 15.617000 6.912000 65.145996 # 1
416 1 17.410999 24.136999 73.966995 # 1
417 1 6.487000 0.721000 71.431000 # 1
418 1 26.577999 35.558998 75.425003 # 1
419 1 31.955000 19.517000 65.664001 # 1
420 1 13.049000 19.499001 74.757996 # 1
421 1 11.904000 31.825001 61.506001 # 1
422 1 30.180000 1.793000 60.743000 # 1
423 1 27.686001 21.809000 77.262001 # 1
424 1 32.860001 5.176000 72.903000 # 1
425 1 5.730000 11.182000 70.300003 # 1
426 1 23.767000 6.340000 75.757996 # 1
427 1 31.382000 18.481001 64.196999 # 1
428 1 40.012001 0.998000 66.177002 # 1
429 1 2.183000 30.216999 68.195000 # 1
430 1 10.479000 10.257000 60.205002 # 1
431 1 4.621000 12.346000 77.431000 # 1
432 1 24.950001 7.634000 77.155998 # 1
433 1 21.348000 30.087999 77.759003 # 1
434 1 40.438999 36.648998 71.555000 # 1
435 1 15.100000 15.432000 66.306000 # 1
436 1 36.537998 10.313000 71.259995 # 1
437 1 34.173000 16.190001 72.992004 # 1
438 1 44.651001 9.795000 62.682999 # 1
439 1 40.143002 35.502998 73.487000 # 1
440 1 37.962002 22.215000 74.348000 # 1
441 1 34.987000 35.263000 69.775002 # 1
442 1 27.077000 37.757000 65.662003 # 1
443 1 20.570000 0.334000 74.318001 # 1
444 1 2.329000 3.826000 61.903999 # 1
445 1 29.884001 0.980000 69.097000 # 1
446 1 43.526001 37.868999 74.153999 # 1
447 1 16.948999 33.470001 74.683998 # 1
448 1 1.259000 38.090000 61.000000 # 1
449 1 20.664000 25.874001 60.826000 # 1
450 1 31.695999 16.707001 62.550999 # 1
451 1 24.211000 8.613000 69.945999 # 1
452 1 9.278000 5.434000 67.916000 # 1
453 1 22.474001 14.712000 73.080002 # 1
454 1 41.250000 6.044000 76.196999 # 1
455 1 15.562000 5.693000 75.899002 # 1
456 1 41.140999 22.344000 64.550995 # 1
457 1 43.764000 1.017000 72.042000 # 1
458 1 21.865000 34.616001 65.201996 # 1
459 1 8.059000 19.055000 75.438995 # 1
460 1 27.872000 32.380001 67.143005 # 1
461 1 40.049999 13.140000 62.096001 # 1
462 1 18.316000 16.652000 61.501999 # 1
463 1 19.646000 4.436000 62.430000 # 1
464 1 7.062000 37.257999 66.020996 # 1
465 1 37.962002 21.846001 76.291000 # 1
466 1 28.056000 25.117001 69.071999 # 1
467 1 19.628000 10.295000 71.209000 # 1
468 1 28.757999 28.757000 65.779999 # 1
469 1 28.665001 2.643000 65.941002 # 1
470 1 33.563999 37.683998 73.099998 # 1
471 1 11.995000 13.418000 66.609001 # 1
472 1 35.116001 27.926001 68.261002 # 1
473 1 7.763000 9.168000 74.300003 # 1
474 1 8.133000 29.405001 75.166000 # 1
475 1 1.794000 15.414000 70.171997 # 1
476 1 7.670000 3.457000 73.423004 # 1
477 1 37.887001 7.264000 74.300995 # 1
478 1 28.389000 29.570000 60.473999 # 1
479 1 15.581000 25.393000 63.486000 # 1
480 1 30.495001 12.105000 60.924999 # 1
481 1 42.488998 6.136000 63.228001 # 1
482 1 27.704000 10.055000 74.962997 # 1
483 1 36.741001 12.438000 65.964005 # 1
484 1 29.386000 7.190000 75.507996 # 1
485 1 36.853001 22.770000 76.514000 # 1
486 1 43.303001 17.354000 60.449001 # 1
487 1 10.980000 36.778000 61.491001 # 1
488 1 6.081000 5.471000 67.389999 # 1
489 1 38.609001 21.919001 63.404999 # 1
490 1 8.909000 17.410000 69.296005 # 1
491 1 3.015000 34.930000 60.036999 # 1
492 1 41.584000 22.548000 77.792999 # 1
493 1 30.403000 28.202999 67.968002 # 1
494 1 39.403000 17.372000 60.514000 # 1
495 1 45.169998 34.431000 75.155998 # 1
496 1 32.400002 35.595001 60.813999 # 1
497 1 27.003000 38.479000 73.106995 # 1
498 1 40.973000 9.444000 63.674999 # 1
499 1 4.566000 11.718000 76.903000 # 1
500 1 34.673000 29.737000 68.942001 # 1
501 1 38.257000 18.482000 73.553001 # 1
502 1 14.066000 28.702000 63.932999 # 1
503 1 3.456000 2.218000 66.553001 # 1
504 1 16.801001 21.493999 62.056000 # 1
505 1 31.697001 33.581001 63.728001 # 1
506 1 15.673000 19.479000 60.106998 # 1
507 1 30.420000 5.008000 60.441002 # 1
508 1 17.632000 11.440000 66.158997 # 1
509 1 44.004002 11.939000 63.909000 # 1
510 1 21.069000 13.603000 71.727005 # 1
511 1 41.120998 12.956000 71.775002 # 1
512 1 15.063000 17.372999 69.893005 # 1
513 1 14.860000 19.424000 69.571999 # 1
514 1 12.070000 36.464001 73.126999 # 1
515 1 14.509000 21.457001 67.303001 # 1
516 1 12.810000 36.132000 76.936996 # 1
517 1 26.023001 27.278999 72.466003 # 1
518 1 5.638000 20.754999 62.612000 # 1
519 1 2.146000 31.639999 66.331001 # 1
520 1 16.966999 15.155000 66.020996 # 1
521 1 9.112000 17.687000 73.716995 # 1
522 1 7.338000 13.898000 60.907001 # 1
523 1 8.836000 27.315001 61.137001 # 1
524 1 30.808001 4.769000 72.182999 # 1
525 1 11.404000 19.959999 73.056000 # 1
526 1 34.542999 23.785999 74.945000 # 1
527 1 18.759001 14.675000 78.037994 # 1
528 1 10.998000 24.063000 72.416000 # 1
529 1 32.435001 0.851000 66.263000 # 1
530 1 2.774000 33.487999 67.354004 # 1
531 1 0.002000 32.490002 60.789001 # 1
532 1 13.586000 37.702000 65.122002 # 1
533 1 39.532001 11.348000 68.444000 # 1
534 1 36.410000 26.945999 72.930000 # 1
535 1 31.917999 22.160000 73.729004 # 1
536 1 20.202000 36.426998 71.473000 # 1
537 1 32.769001 28.461000 66.664001 # 1
538 1 20.590000 31.068001 77.443001 # 1
539 1 26.910000 28.868999 76.388000 # 1
540 1 4.307000 15.691000 70.817001 # 1
541 1 23.139999 23.490000 64.737000 # 1
542 1 24.212000 21.125000 77.709999 # 1
543 1 14.934000 14.804000 66.285995 # 1
544 1 42.527000 23.582001 63.946999 # 1
545 1 2.884000 19.646000 74.249001 # 1
546 1 26.650999 13.547000 65.512001 # 1
547 1 22.752001 24.358999 74.206001 # 1
548 1 15.452000 31.714001 70.345001 # 1
549 1 16.191000 24.600000 77.126999 # 1
550 1 36.797001 12.087000 63.471001 # 1
551 1 32.935001 25.801001 75.806999 # 1
552 1 13.308000 24.802000 64.753998 # 1
553 1 6.820000 8.335000 62.562000 # 1
554 1 3.181000 38.589001 68.636002 # 1
555 1 38.238998 21.679001 71.809998 # 1
556 1 34.634998 18.575001 76.044998 # 1
557 1 20.330999 19.646000 62.408001 # 1
558 1 0.353000 34.098999 76.602997 # 1
559 1 13.808000 34.598000 72.257004 # 1
560 1 20.237000 8.465000 73.947998 # 1
561 1 12.087000 1.516000 70.195999 # 1
562 1 27.409000 23.546000 73.485001 # 1
563 1 8.834000 7.301000 76.477997 # 1
564 1 41.841999 7.633000 67.854996 # 1
565 1 33.047001 36.537998 76.048004 # 1
566 1 7.246000 16.375000 66.014999 # 1
567 1 18.684999 2.772000 61.959000 # 1
568 1 20.459999 29.090000 62.556000 # 1
569 1 35.522999 33.487999 67.113998 # 1
570 1 14.325000 26.872999 75.091003 # 1
571 1 9.870000 24.469999 74.082001 # 1
572 1 32.622002 37.554001 65.841995 # 1
573 1 9.169000 37.924000 69.212997 # 1
574 1 19.091000 2.994000 64.376999 # 1
575 1 42.138000 9.999000 75.854004 # 1
576 1 42.174999 12.660000 72.589005 # 1
577 1 30.827999 22.437000 70.458000 # 1
578 1 34.358002 22.344000 61.580002 # 1
579 1 40.734001 27.760000 73.354996 # 1
580 1 12.606000 37.793999 62.313999 # 1
581 1 12.791000 31.752001 74.173004 # 1
582 1 22.511999 35.723999 63.217999 # 1
583 1 42.951000 11.736000 73.889999 # 1
584 1 43.301998 1.664000 77.568001 # 1
585 1 9.962000 5.766000 64.395996 # 1
586 1 35.873001 22.770000 74.192001 # 1
587 1 30.032000 1.239000 77.953995 # 1
588 1 43.689999 1.811000 62.755001 # 1
589 1 28.683001 8.040000 63.361000 # 1
590 1 35.799000 19.202999 71.492996 # 1
591 1 8.281000 22.770000 71.236000 # 1
592 1 27.853001 37.905998 69.500000 # 1
593 1 26.115000 9.242000 75.625000 # 1
594 1 5.343000 32.639000 77.757996 # 1
595 1 20.884001 4.916000 63.763000 # 1
596 1 25.153000 9.297000 74.290001 # 1
597 1 38.942001 37.591000 69.373001 # 1
598 1 17.483999 10.313000 70.040001 # 1
599 1 0.464000 35.945999 66.377998 # 1
600 1 30.309999 21.291000 73.405998 # 1
601 1 20.311001 7.708000 74.869003 # 1
602 1 32.270000 28.166000 74.589996 # 1
603 1 36.853001 17.834999 69.770996 # 1
604 1 11.293000 18.056999 75.401001 # 1
605 1 44.799999 18.796000 74.611000 # 1
606 1 7.763000 8.465000 69.820000 # 1
607 1 18.687000 37.499001 67.333000 # 1
608 1 25.025999 32.657001 65.106995 # 1
609 1 21.014999 30.254000 62.066002 # 1
610 1 10.147000 9.000000 60.165001 # 1
611 1 1.110000 24.506001 64.996002 # 1
612 1 11.885000 28.239000 62.735001 # 1
613 1 28.240000 9.296000 66.958000 # 1
614 1 11.349000 32.952999 74.462006 # 1
615 1 37.112999 38.108002 62.778999 # 1
616 1 4.511000 32.324001 70.962997 # 1
617 1 23.731001 12.180000 75.186005 # 1
618 1 32.122002 21.827000 73.184998 # 1
619 1 37.259998 29.589001 76.931000 # 1
620 1 39.938999 12.068000 60.068001 # 1
621 1 21.034000 33.248001 72.117004 # 1
622 1 1.148000 35.873001 73.167000 # 1
623 1 19.017000 1.146000 60.813000 # 1
624 1 27.003000 32.342999 72.679001 # 1
625 1 30.660999 5.674000 65.375000 # 1
626 1 25.172001 4.381000 76.897995 # 1
627 1 36.224998 25.559999 67.445000 # 1
628 1 5.304000 5.563000 70.460999 # 1
629 1 18.445000 12.013000 62.145000 # 1
630 1 24.839001 8.409000 65.412003 # 1
631 1 1.793000 2.163000 66.293999 # 1
632 1 21.829000 38.146000 76.776001 # 1
633 1 3.050000 16.226999 71.033997 # 1
634 1 33.673000 5.748000 68.889000 # 1
635 1 28.796000 32.120998 66.992996 # 1
636 1 22.084999 3.937000 62.047001 # 1
637 1 23.785999 4.584000 78.094002 # 1
638 1 31.622000 18.408001 73.018005 # 1
639 1 18.000999 4.917000 76.973000 # 1
640 1 19.923000 3.586000 69.714996 # 1
641 1 22.566999 17.391001 65.377998 # 1
642 1 27.316999 25.448999 65.262001 # 1
643 1 13.696000 26.466000 74.660004 # 1
644 1 41.251999 36.703999 62.090000 # 1
645 1 8.522000 28.868000 72.119003 # 1
646 1 6.561000 5.397000 68.300995 # 1
647 1 16.061001 17.521000 72.714005 # 1
648 1 37.019001 23.285999 60.773998 # 1
649 1 42.305000 18.759001 73.979996 # 1
650 1 30.736000 34.025002 76.694000 # 1
651 1 0.019000 4.103000 64.221001 # 1
652 1 24.469999 16.615000 62.098999 # 1
653 1 3.772000 37.110001 60.081001 # 1
654 1 40.936001 5.434000 65.862000 # 1
655 1 5.213000 26.207001 69.944000 # 1
656 1 17.430000 33.192001 60.320999 # 1
657 1 15.618000 23.601000 67.293999 # 1
658 1 10.573000 34.431000 70.246002 # 1
659 1 1.257000 9.149000 74.242004 # 1
660 1 25.764000 19.959999 68.546997 # 1
661 1 32.140999 36.945000 76.697998 # 1
662 1 26.041000 11.626000 74.324997 # 1
663 1 15.582000 31.584999 71.793999 # 1
664 1 7.025000 34.782001 68.315002 # 1
665 1 19.333000 22.714001 67.195000 # 1
666 1 32.490002 5.952000 75.962997 # 1
667 1 22.066999 5.138000 62.625999 # 1
668 1 3.014000 30.938000 64.681000 # 1
669 1 42.432999 5.656000 70.094002 # 1
670 1 40.568001 28.850000 72.470001 # 1
671 1 29.681999 23.434999 67.737999 # 1
672 1 25.856001 20.976999 69.589005 # 1
673 1 23.399000 28.295000 65.527000 # 1
674 1 17.171000 35.872002 61.036999 # 1
675 1 44.394001 38.090000 67.645996 # 1
676 1 37.258999 21.679001 69.487999 # 1
677 1 39.514999 33.507000 65.069000 # 1
678 1 39.070999 27.556000 65.701996 # 1
679 1 26.245001 23.083000 60.820000 # 1
680 1 12.884000 35.743999 75.915001 # 1
681 1 43.911999 11.219000 77.654999 # 1
682 1 20.996000 26.540001 72.147003 # 1
683 1 43.062000 4.677000 77.813004 # 1
684 1 0.999000 12.476000 71.556999 # 1
685 1 13.882000 35.835999 70.856003 # 1
686 1 23.601000 4.399000 66.292999 # 1
687 1 17.483999 10.960000 66.639000 # 1
688 1 42.821999 24.451000 63.473000 # 1
689 1 7.633000 1.941000 62.492001 # 1
690 1 15.175000 23.878000 67.869003 # 1
691 1 40.917999 11.108000 75.612999 # 1
692 1 8.668000 11.034000 69.869995 # 1
693 1 9.610000 0.185000 69.472000 # 1
694 1 31.363001 1.757000 77.307999 # 1
695 1 11.035000 23.934000 67.479004 # 1
696 1 23.730000 8.354000 62.612999 # 1
697 1 42.581001 9.241000 61.463001 # 1
698 1 8.262000 17.743000 71.873001 # 1
699 1 18.040001 36.426998 60.952000 # 1
700 1 1.664000 7.134000 72.074005 # 1
701 1 37.832001 12.125000 77.600998 # 1
702 1 39.125999 26.891001 73.030998 # 1
703 1 3.069000 25.985001 61.866001 # 1
704 1 10.388000 26.077999 68.705002 # 1
705 1 22.659000 15.303000 74.571999 # 1
706 1 14.547000 35.651001 68.778999 # 1
707 1 36.057999 22.011999 74.604996 # 1
708 1 40.160000 11.847000 68.389000 # 1
709 1 7.228000 26.836000 75.115997 # 1
710 1 37.794998 15.082000 75.843002 # 1
711 1 39.977001 36.223999 74.544998 # 1
712 1 15.895000 26.594999 62.541000 # 1
713 1 42.324001 30.143000 64.433998 # 1
714 1 1.036000 15.932000 72.285004 # 1
715 1 19.813000 21.162001 75.878998 # 1
716 1 22.679001 35.299999 76.947998 # 1
717 1 10.093000 29.940001 60.647999 # 1
718 1 38.681999 16.282000 65.462997 # 1
719 1 26.356001 33.543999 62.518002 # 1
720 1 6.785000 36.112000 61.057999 # 1
721 1 5.232000 25.098000 68.880005 # 1
722 1 2.588000 16.301001 63.229000 # 1
723 1 36.723000 22.197001 70.584999 # 1
724 1 9.224000 25.910999 70.828995 # 1
725 1 10.276000 13.344000 70.787003 # 1
726 1 2.846000 4.621000 77.145004 # 1
727 1 29.903000 6.432000 74.397003 # 1
728 1 26.243999 17.243999 75.180000 # 1
729 1 17.742001 8.336000 73.803001 # 1
730 1 25.284000 30.955999 67.412994 # 1
731 1 7.875000 35.466000 66.272003 # 1
732 1 31.788000 6.339000 66.244995 # 1
733 1 17.021999 19.313000 64.334000 # 1
734 1 9.944000 24.820999 69.173004 # 1
735 1 9.259000 4.547000 71.303001 # 1
736 1 36.556999 22.086000 76.015999 # 1
737 1 9.021000 35.854000 61.706001 # 1
738 1 32.416000 2.144000 66.356003 # 1
739 1 30.145000 32.601002 67.819000 # 1
740 1 19.739000 17.816000 63.841999 # 1
741 1 15.711000 32.047001 61.963001 # 1
742 1 4.696000 35.152000 77.041000 # 1
743 1 3.993000 20.847000 62.853001 # 1
744 1 16.375000 12.864000 69.882996 # 1
745 1 0.758000 1.498000 71.811005 # 1
746 1 40.125000 32.693001 62.464001 # 1
747 1 29.812000 36.223999 66.641998 # 1
748 1 39.716999 19.794001 69.499001 # 1
749 1 28.223000 30.716000 67.469002 # 1
750 1 35.966000 30.384001 73.233002 # 1