LAMMPS (11 Aug 2017)
####################################################################################
# External variables that have to be passed on call
# Temperature 	= temperature of the system
# trjFile	= name of the .xtc trajectory file
# dataFile	= name of the .data input for Lammps
# nRand		= random number as seed for the velocity creation
# Timestep	= timestep in fs
# Eps		= LJ epsilon of mW C interaction
# Sigma		= LJ epsilon of mW C interaction
# nTimesteps	= number of timesteps to run
# nStride       = stride of thermo and trajectory output
# pass variables to the script via ${variable_name}
#####################################################################################
units          real #read on lammps how this defines the units for energy, forces etc.
dimension      3 #simulation simension. 3D
newton         on
processors     * * 1 #(x y z) sets how splits into box between processors, * does auto
boundary       p p m #(x y z) periodic boundary conditions
atom_style     atomic #sets "style" of atoms being used in simulation. i.e. what attributes the atoms have (bonds, angles, spin..)
box tilt large
read_data      ${dataIN} #system set up, ie. type 1 and 2 atoms at certain positions and velocities
read_data      hetero111.data 
  triclinic box = (-9.348 3.51633 -22.398) to (34.71 41.6717 127.602) with tilt (-22.029 0 0)
  4 by 4 by 1 MPI processor grid
  reading atoms ...
  6500 atoms
#..but this file doesn't contain masses so need line below
####################################################################################
#mass - tell lammps atom masses. syntax: mass atom-type value
mass           1 18.015
mass           2 12.011

#groups - set the atoms in the simulation to belong to groups
#syntax: group "group name" type n
#set the groups by assigning "atom types" to them
group          mW 	type 1 #makes a group called "mW" (ie H20) from all type 1 atoms, which are
6000 atoms in group mW
#..defined in the file read by read_data
group          OH        type 2 #same but for the surface (type 2 is defined by read_data file)
500 atoms in group OH

#set up interaction between the groups
pair_style sw #sw = stilinger-weber potential
pair_coeff * * ./mW-OH.sw mW OH  #file mW-OH.sw has potential definition in. Tell lammps to use this between group mW and OH defined above

#another interaction example - here set up Lenard-Jones interation between type 1 and type 2 atoms, then interaction between type 2 and type 2. You would also need a water-water interaction
#pair_coeff 1 2 lj/cut ${Eps} ${Sigma} # e.g. surface-water interaction
#pair_coeff 2 2 lj/cut 0.0    ${Sigma} # e.g. surface-surface interaction (set to zero strength for a surface of frozen atoms)


neighbor       2.0 bin

timestep       ${Timestep} #timestep for the equations of motion - Very important! Careful to use appropriate value for the model you are using
timestep       10 
min_style      cg #minimisation algrothim that will be used in any minimize command given to lammps
run_style      verlet #algorithm for the equations of motion "velocity-verlet" algorithm used

#make sure compute the correct temp. exclude the stationary surface
#syntax: compute name group attribute
compute        mWtemp mW temp #so mWtemp is the name we've given to temperature of the mW group (i.e. water) -> call in thermo_style with c_mWtemp

thermo         $(v_psStride*1000/v_Timestep) #how often outputs thermodynamic info. We don't want every timestep - too much information. Set up here so get information every v_psStride picoseconds
thermo         1000 
#thermo style: thermodynamic input - shown as table of values specified
thermo_style   custom step time etotal c_mWtemp ke pe enthalpy temp press vol density cpu
thermo_modify  flush yes

####################################################################################
fix fZwalls all wall/reflect zhi EDGE #reflecting wall at top of sim - in case of evapouration
fix fMin OH setforce 0 0 0 #ensure forces between frozen surface are zero

#set wall for bottom of simulation - don't worry about
fix wallz mW wall/lj93 zlo 0.001 0.5 2  5
fix_modify wallz energy yes


############running a simulation######################################################
#1) the dump command tells lammps to save the positions and velocities of atoms - these can then be watched as a "trajectory" in the trajectoryfile ${trjFile}
#Put dump command where you wish to view from

dump d1 all xtc $(v_psStride*1000/v_Timestep) ${trjFile}
dump d1 all xtc 1000 ${trjFile}
dump d1 all xtc 1000 ./test1.xtc

#####equilibration phase of simulation####
#1st we minimised our setup - this gets us towards minimum energy config - stops the simulation exploding from the start from huge forces etc (e.g. if two atoms were very close together the force would be huge between them -> meaning they leave the box between one timestep and the other -> simulation crashes
#syntax: minimiza etol ftol maxiter maxeval - see lammps documentation self-explanatory
minimize 1e-13 1e-15 5000 50000
WARNING: Using 'neigh_modify every 1 delay 0 check yes' setting during minimization (../min.cpp:168)
Neighbor list info ...
  update every 1 steps, delay 0 steps, check yes
  max neighbors/atom: 2000, page size: 100000
  master list distance cutoff = 6.09869
  ghost atom cutoff = 6.09869
  binsize = 3.04935, bins = 22 13 50
  1 neighbor lists, perpetual/occasional/extra = 1 0 0
  (1) pair sw, perpetual
      attributes: full, newton on
      pair build: full/bin/atomonly
      stencil: full/bin/3d
      bin: standard
Per MPI rank memory allocation (min/avg/max) = 4.015 | 4.152 | 4.431 Mbytes
Step Time TotEng c_mWtemp KinEng PotEng Enthalpy Temp Press Volume Density CPU 
       0            0    4434704.3            0            0    4434704.3     10843032            0    1742598.7    252157.23   0.75135668            0 
    1000        10000   -67928.903            0            0   -67928.903   -66354.938            0    428.00372    252157.23   0.75135668     3.296041 
    2000        20000   -68014.955            0            0   -68014.955    -67078.28            0    254.70751    252157.23   0.75135668    6.9605248 
    2437        24370   -68042.062            0            0   -68042.062    -67179.56            0    234.53784    252157.23   0.75135668     8.596359 
Loop time of 8.59638 on 16 procs for 2437 steps with 6500 atoms

88.3% CPU use with 16 MPI tasks x no OpenMP threads

Minimization stats:
  Stopping criterion = linesearch alpha is zero
  Energy initial, next-to-last, final = 
         4434704.31665     -68042.0618059     -68042.0618059
  Force two-norm initial, final = 2.83327e+07 0.107409
  Force max component initial, final = 9.7318e+06 0.0263524
  Final line search alpha, max atom move = 9.53674e-07 2.51316e-08
  Iterations, force evaluations = 2437 4299

MPI task timing breakdown:
Section |  min time  |  avg time  |  max time  |%varavg| %total
---------------------------------------------------------------
Pair    | 5.3118     | 6.6853     | 7.7046     |  27.8 | 77.77
Neigh   | 0.057077   | 0.0683     | 0.074826   |   1.8 |  0.79
Comm    | 0.66244    | 1.6832     | 3.0535     |  55.5 | 19.58
Output  | 0.0016458  | 0.0016503  | 0.0016818  |   0.0 |  0.02
Modify  | 0.0068724  | 0.0082969  | 0.0099735  |   1.1 |  0.10
Other   |            | 0.1497     |            |       |  1.74

Nlocal:    406.25 ave 425 max 385 min
Histogram: 4 0 0 0 1 1 5 2 1 2
Nghost:    1702.62 ave 1745 max 1644 min
Histogram: 1 0 1 2 2 1 2 5 1 1
Neighs:    0 ave 0 max 0 min
Histogram: 16 0 0 0 0 0 0 0 0 0
FullNghs:  12193.5 ave 12842 max 11356 min
Histogram: 3 1 0 0 1 1 3 3 2 2

Total # of neighbors = 195096
Ave neighs/atom = 30.0148
Neighbor list builds = 79
Dangerous builds = 0

########set up gaussian velocities at a temp for the mW group##########
#just some initial configuration from which to start
velocity mW create ${T0} ${nRand} dist gaussian mom yes rot yes #initial set up, with random number
velocity mW create 275 ${nRand} dist gaussian mom yes rot yes 
velocity mW create 275 13443 dist gaussian mom yes rot yes 

##############equilibration###############
# - important step - once potential energy of system has a small variance then equilibrated system
#fix nvt command: runs nvt simulation (contstant number of particles, volume and controlled temperature)
#syntax: fix fixID groupID style-name keywords..
#keywords here are temp and tchain. temp: 3 arguements - start temp of sim, end temp of sim. temp damping parameter (how rapidly temperature is relaxed). tchain: one arguement - chain length
#This is all to do with the thermostat the simulation uses. Nose-Hoover style. Read info on lammps and elsewhere if want to properly understand. These are set up appropraitely so just use values here. Do at a contant temperature

timestep $(v_Timestep/2) #use half timestep for equilibration
timestep 5 
fix f1 mW nvt temp ${T0} ${T0} $(100*v_Timestep/2) tchain 10
fix f1 mW nvt temp 275 ${T0} $(100*v_Timestep/2) tchain 10
fix f1 mW nvt temp 275 275 $(100*v_Timestep/2) tchain 10
fix f1 mW nvt temp 275 275 500 tchain 10
fix_modify f1 temp mWtemp #makes temp become mWtemp - i.e. thermostat acts on the water
WARNING: Temperature for fix modify is not for group all (../fix_nh.cpp:1395)
run $(50*1000/v_Timestep*2) #rough rule for how long need to equilibrate for a timestep
run 10000 
Per MPI rank memory allocation (min/avg/max) = 2.893 | 3.043 | 3.306 Mbytes
Step Time TotEng c_mWtemp KinEng PotEng Enthalpy Temp Press Volume Density CPU 
    2437            0   -63124.545          275    4917.5169   -68042.062   -58983.698     253.8429     1126.009    252157.23   0.75135668            0 
    3000         2815   -61371.256    176.98434    3164.8126   -64536.068   -61555.695    163.36806    -50.15399    252157.23   0.75135668    1.0503929 
    4000         7815   -58340.401    244.58557    4373.6497   -62714.051   -60251.014     225.7684   -519.54777    252157.23   0.75135668    2.7725949 
    5000        12815   -56532.299    266.79587    4770.8117   -61303.111   -57726.693    246.26996   -324.78827    252157.23   0.75135668     4.451782 
    6000        17815   -56435.357    276.17156    4938.4666   -61373.824   -55967.626    254.92433    127.18877    252157.23   0.75135668     6.224905 
    7000        22815   -56449.245    270.34654    4834.3042   -61283.549   -55873.461    249.54745     156.5713    252157.23   0.75135668    8.0646169 
    8000        27815   -56292.484    274.99903    4917.4994   -61209.983    -57133.91      253.842   -228.80683    252157.23   0.75135668    9.8855779 
    9000        32815   -56189.912    275.16253    4920.4231   -61110.335   -57637.644    253.99292   -393.67785    252157.23   0.75135668     11.67915 
   10000        37815   -56490.212    270.44059     4835.986   -61326.198   -55718.052    249.63427    209.97129    252157.23   0.75135668    13.489934 
   11000        42815   -56220.568    277.08922    4954.8761   -61175.444    -56935.67    255.77139   -194.45573    252157.23   0.75135668    15.354397 
   12000        47815   -56491.709     275.4067    4924.7895   -61416.498   -56922.701    254.21831   -117.19861    252157.23   0.75135668    17.134829 
   12437        50000   -56414.559    277.66664    4965.2014    -61379.76   -57226.241    256.30438   -220.71852    252157.23   0.75135668    17.916073 
Loop time of 17.9161 on 16 procs for 10000 steps with 6500 atoms

Performance: 241.124 ns/day, 0.100 hours/ns, 558.157 timesteps/s
91.3% CPU use with 16 MPI tasks x no OpenMP threads

MPI task timing breakdown:
Section |  min time  |  avg time  |  max time  |%varavg| %total
---------------------------------------------------------------
Pair    | 12.637     | 14.103     | 15.053     |  16.6 | 78.72
Neigh   | 0.54652    | 0.60308    | 0.64827    |   3.6 |  3.37
Comm    | 1.9612     | 2.9617     | 4.4914     |  38.0 | 16.53
Output  | 0.011667   | 0.01169    | 0.011951   |   0.1 |  0.07
Modify  | 0.17421    | 0.18551    | 0.19477    |   1.3 |  1.04
Other   |            | 0.05103    |            |       |  0.28

Nlocal:    406.25 ave 422 max 393 min
Histogram: 1 1 3 2 3 0 4 0 1 1
Nghost:    1706.88 ave 1729 max 1689 min
Histogram: 1 3 1 1 2 3 2 2 0 1
Neighs:    0 ave 0 max 0 min
Histogram: 16 0 0 0 0 0 0 0 0 0
FullNghs:  11913.6 ave 12358 max 11524 min
Histogram: 2 3 1 1 1 2 1 3 0 2

Total # of neighbors = 190618
Ave neighs/atom = 29.3258
Neighbor list builds = 696
Dangerous builds = 1

####example of npt run - constant pressure instead of volume. System volume will change with time####
##this will likely be necessary for your simulation. If doing bulk liquid (i.e. periodic b.c in xy&z) then need appropraite density - equilibrate with npt then do production run nvt in this case.
#timestep $(v_Timestep/2)
#fix f1 mW npt temp 275 275 $(100*v_Timestep/2) tchain 10 iso 1.0 1.0 $(1000*v_Timestep/2) pchain 10
#fix_modify f1 temp mWtemp
#run $(50*1000/v_Timestep*2)


########production run##########
#after equilibrated - this is the data and trajectory you want as the results
#pass different T0 and T1 to cool as the sim goes -> "cooling ramp" simulation
#Max temperature change rate you should use for mW model is 0.5K/ns - so run simulation for long enough to obey this rule. i.e. 275K to 265K should be a 20ns simulation
unfix f1 #have to unfix the previous fix
fix f2 mW nvt temp ${T0} ${T1} $(100*v_Timestep) tchain 10
fix f2 mW nvt temp 275 ${T1} $(100*v_Timestep) tchain 10
fix f2 mW nvt temp 275 275 $(100*v_Timestep) tchain 10
fix f2 mW nvt temp 275 275 1000 tchain 10
fix_modify f2 temp mWtemp #makes temp become mWtemp -> have to do everytime
WARNING: Temperature for fix modify is not for group all (../fix_nh.cpp:1395)

#dump d1 all xtc $(v_psStride*1000/v_Timestep) ${trjFile} #uncomment to just watch production run
reset_timestep 0
run 0
Per MPI rank memory allocation (min/avg/max) = 2.894 | 3.043 | 3.306 Mbytes
Step Time TotEng c_mWtemp KinEng PotEng Enthalpy Temp Press Volume Density CPU 
       0        50000   -56414.559    277.66664    4965.2014    -61379.76   -57226.241    256.30438   -220.71852    252157.23   0.75135668            0 
Loop time of 3.44217e-06 on 16 procs for 0 steps with 6500 atoms

0.0% CPU use with 16 MPI tasks x no OpenMP threads

MPI task timing breakdown:
Section |  min time  |  avg time  |  max time  |%varavg| %total
---------------------------------------------------------------
Pair    | 0          | 0          | 0          |   0.0 |  0.00
Neigh   | 0          | 0          | 0          |   0.0 |  0.00
Comm    | 0          | 0          | 0          |   0.0 |  0.00
Output  | 0          | 0          | 0          |   0.0 |  0.00
Modify  | 0          | 0          | 0          |   0.0 |  0.00
Other   |            | 3.442e-06  |            |       |100.00

Nlocal:    406.25 ave 422 max 394 min
Histogram: 1 0 6 1 1 3 1 2 0 1
Nghost:    1706.62 ave 1730 max 1688 min
Histogram: 1 3 1 2 1 5 1 0 1 1
Neighs:    0 ave 0 max 0 min
Histogram: 16 0 0 0 0 0 0 0 0 0
FullNghs:  11903.1 ave 12403 max 11524 min
Histogram: 2 1 2 3 1 2 2 2 0 1

Total # of neighbors = 190450
Ave neighs/atom = 29.3
Neighbor list builds = 0
Dangerous builds = 0

#set simulation to run
timestep ${Timestep}
timestep 10
run $(v_nsRunTime*1000000/v_Timestep) #nsRuntime -> how long sim will run in nanoseconds
run 100000 
Per MPI rank memory allocation (min/avg/max) = 2.894 | 3.043 | 3.306 Mbytes
Step Time TotEng c_mWtemp KinEng PotEng Enthalpy Temp Press Volume Density CPU 
       0        50000   -56414.559    277.66664    4965.2014    -61379.76   -57226.241    256.30438   -220.71852    252157.23   0.75135668            0 
    1000        60000   -56304.917    278.55115    4981.0181   -61285.935   -56092.984    257.12084    57.630407    252157.23   0.75135668    1.8411641 
    2000        70000    -56530.53    269.23818    4814.4846   -61345.015   -57387.034    248.52436   -232.90672    252157.23   0.75135668    3.6728802 
    3000        80000   -56506.856    275.53161     4927.023   -61433.879   -57344.503    254.33361   -227.77888    252157.23   0.75135668    5.4900441 
    4000        90000   -56419.001    275.71998    4930.3915   -61349.393   -56979.049    254.50749   -152.29216    252157.23   0.75135668    7.3246031 
    5000       100000   -56538.153    274.85854    4914.9873    -61453.14   -56517.406    253.71232    5.6416112    252157.23   0.75135668     9.148087 
    6000       110000   -56324.515    276.75604    4948.9182   -61273.433   -56307.075    255.46384    4.7423092    252157.23   0.75135668    10.959422 
    7000       120000   -56428.698    277.00162    4953.3097   -61382.008   -56315.147    255.69053    30.877737    252157.23   0.75135668    12.787635 
    8000       130000   -56583.778    272.17912    4867.0742   -61450.852   -55996.045    251.23904    159.82048    252157.23   0.75135668     14.61652 
    9000       140000   -56563.124    271.12183    4848.1679   -61411.291   -56770.499     250.2631   -56.390916    252157.23   0.75135668    16.425912 
   10000       150000   -56394.614    273.81494    4896.3257    -61290.94   -56913.253    252.74901   -141.03206    252157.23   0.75135668    18.271674 
   11000       160000   -56517.841    275.54003    4927.1737   -61445.014   -56920.482    254.34138   -109.48919    252157.23   0.75135668    20.083343 
   12000       170000    -56449.43    271.27958    4850.9887   -61300.419   -56249.592    250.40871    54.341306    252157.23   0.75135668    21.898599 
   13000       180000    -56475.61    274.64954      4911.25    -61386.86   -56332.411     253.5194    38.939839    252157.23   0.75135668    23.723309 
   14000       190000   -56530.893     273.7919    4895.9138   -61426.807   -56938.879    252.72775   -110.94249    252157.23   0.75135668    25.526781 
   15000       200000   -56444.506    274.80383     4914.009   -61358.515   -56578.171    253.66182   -36.347417    252157.23   0.75135668    27.335283 
   16000       210000    -56603.42    272.97557    4881.3162   -61484.736   -56199.919    251.97421    109.72292    252157.23   0.75135668    29.140722 
   17000       220000    -56437.04    278.93618    4987.9032   -61424.943   -57011.875    257.47625    -156.3131    252157.23   0.75135668    30.937277 
   18000       230000   -56675.594    272.35792    4870.2716   -61545.865   -56892.554    251.40409   -58.997559    252157.23   0.75135668     32.76953 
   19000       240000   -56468.437    277.52355    4962.6427    -61431.08   -56917.236     256.1723   -122.04057    252157.23   0.75135668     34.57651 
   20000       250000   -56457.178    275.79724     4931.773   -61388.951   -56255.216     254.5788    54.918909    252157.23   0.75135668    36.453411 
   21000       260000   -56514.827    272.10974    4865.8335    -61380.66   -57055.971      251.175   -147.15186    252157.23   0.75135668    38.304191 
   22000       270000   -56812.795    274.63665    4911.0196   -61723.815   -56705.713    253.50751    29.118593    252157.23   0.75135668    40.118141 
   23000       280000   -56619.566    276.84244    4950.4631    -61570.03   -57000.446    255.54359   -103.57164    252157.23   0.75135668    41.925155 
   24000       290000   -56565.503    276.00225     4935.439   -61500.942   -57310.049    254.76804   -202.46235    252157.23   0.75135668    43.738956 
   25000       300000     -56501.9    273.20192    4885.3639   -61387.264   -56026.566    252.18316    129.25635    252157.23   0.75135668    45.564098 
   26000       310000   -56523.713    274.76341    4913.2861   -61436.999   -56215.978    253.62451    83.681457    252157.23   0.75135668    47.355714 
   27000       320000   -56490.312     272.7509    4877.2986    -61367.61   -56521.495    251.76683   -8.4797236    252157.23   0.75135668    49.184111 
   28000       330000   -56538.439    272.93738    4880.6333   -61419.072   -56892.246    251.93897   -96.209723    252157.23   0.75135668    51.047198 
   29000       340000   -56545.017    274.65091    4911.2745   -61456.291   -56713.711    253.52067   -45.872652    252157.23   0.75135668    52.890804 
   30000       350000   -56624.644    277.26688     4958.053   -61582.697    -56966.69    255.93538   -93.011663    252157.23   0.75135668    54.695431 
   31000       360000   -56430.708      272.898    4879.9292   -61310.637   -56479.881    251.90262   -13.371565    252157.23   0.75135668    56.510586 
   32000       370000   -56650.212    273.04049    4882.4771   -61532.689   -56547.007    252.03414    28.064334    252157.23   0.75135668    58.319424 
   33000       380000   -56476.509    273.03884    4882.4477   -61358.957   -56993.871    252.03262   -140.68459    252157.23   0.75135668    60.140821 
   34000       390000   -56502.176    274.44097    4907.5203   -61409.696   -56759.059    253.32687   -69.853505    252157.23   0.75135668      61.9631 
   35000       400000   -56680.486    271.88047    4861.7337   -61542.219   -57619.656    250.96337   -255.38602    252157.23   0.75135668    63.776629 
   36000       410000   -56447.308    275.37563    4924.2338   -61371.542   -56373.309    254.18963    20.122426    252157.23   0.75135668    65.603394 
   37000       420000   -56563.828    276.54283    4945.1056   -61508.934   -56308.803    255.26703    69.348236    252157.23   0.75135668    67.429673 
   38000       430000   -56360.269    279.43429    4996.8102   -61357.079   -56361.034    257.93603  -0.20799876    252157.23   0.75135668    69.240198 
   39000       440000   -56498.411    276.96369    4952.6313   -61451.042   -56578.634    255.65551   -21.814886    252157.23   0.75135668    71.059916 
   40000       450000    -56408.48    276.23617     4939.622   -61348.102   -57138.613    254.98397   -198.54296    252157.23   0.75135668    72.867682 
   41000       460000   -56543.189    271.50095    4854.9472   -61398.136   -56312.604    250.61305    62.702246    252157.23   0.75135668    74.678937 
   42000       470000   -56420.129     271.8901     4861.906   -61282.035    -56805.88    250.97226   -104.89612    252157.23   0.75135668    76.483824 
   43000       480000   -56552.874    273.61765    4892.7978   -61445.672   -56334.279     252.5669     59.44187    252157.23   0.75135668    78.290389 
   44000       490000   -56509.442    271.14332    4848.5521   -61357.994   -56021.565    250.28293     132.6671    252157.23   0.75135668    80.113161 
   45000       500000   -56326.015    280.07329    5008.2368   -61334.252   -56293.766    258.52587    8.7693945    252157.23   0.75135668     81.92534 
   46000       510000   -56482.627    277.83818    4968.2689   -61450.896   -56533.883    256.46272   -13.937859    252157.23   0.75135668    83.753045 
   47000       520000   -56539.097    276.58256     4945.816   -61484.913   -56947.262    255.30371   -110.99114    252157.23   0.75135668    85.597842 
   48000       530000   -56655.181    272.30498    4869.3248   -61524.506   -57373.669    251.35522   -195.37628    252157.23   0.75135668    87.415622 
   49000       540000   -56457.297    274.17354    4902.7382   -61360.035   -56432.454    253.08002    6.7554895    252157.23   0.75135668    89.227356 
   50000       550000   -56463.997    279.44802    4997.0559   -61461.053   -55930.427    257.94871     145.0923    252157.23   0.75135668    91.054132 
   51000       560000   -56357.465    277.66801    4965.2258   -61322.691   -56826.942    256.30564   -127.66362    252157.23   0.75135668     92.87999 
   52000       570000   -56515.881      269.556    4820.1679   -61336.049   -56833.184    248.81773   -86.283479    252157.23   0.75135668    94.717577 
   53000       580000   -56576.959    271.60315    4856.7748   -61433.734    -56822.57    250.70739   -66.788355    252157.23   0.75135668    96.532425 
   54000       590000   -56315.898    278.27215     4976.029   -61291.927   -56596.584    256.86331   -76.326334    252157.23   0.75135668    98.356338 
   55000       600000   -56610.731    276.11778    4937.5049   -61548.236   -57252.545    254.87468    -174.5265    252157.23   0.75135668    100.19552 
   56000       610000   -56358.382    276.68255     4947.604   -61305.986   -56723.974      255.396   -99.414416    252157.23   0.75135668    102.00412 
   57000       620000   -56566.725    273.44467    4889.7046    -61456.43   -56462.117    252.40723    28.445804    252157.23   0.75135668    103.82781 
   58000       630000   -56708.464    274.24826    4904.0744   -61612.539   -57000.164      253.149   -79.321128    252157.23   0.75135668    105.63973 
   59000       640000   -56598.616    276.51417     4944.593   -61543.209   -56797.949    255.24057   -54.203885    252157.23   0.75135668    107.45096 
   60000       650000   -56561.419    271.70973    4858.6806     -61420.1   -56441.189    250.80576    32.693764    252157.23   0.75135668    109.26185 
   61000       660000    -56738.81    276.01676    4935.6984   -61674.509   -58046.819    254.78143   -355.68318    252157.23   0.75135668    111.06917 
   62000       670000   -56694.229    275.87731    4933.2049   -61627.434   -56580.837    254.65272    30.834455    252157.23   0.75135668    112.85613 
   63000       680000   -56829.393    274.21044    4903.3981   -61732.791   -57088.794    253.11409   -70.538213    252157.23   0.75135668    114.63147 
   64000       690000    -56666.37    275.68557    4929.7761   -61596.146   -57262.847    254.47572   -162.19844    252157.23   0.75135668    116.40122 
   65000       700000    -56631.78    281.40205    5031.9976   -61663.777   -56116.876    259.75241    140.01633    252157.23   0.75135668     118.2113 
   66000       710000   -56773.212    274.08743    4901.1983    -61674.41   -56263.375    253.00053    138.63853    252157.23   0.75135668    120.00616 
   67000       720000   -56824.649    273.57564    4892.0465   -61716.696   -56790.194    252.52812    9.3692903    252157.23   0.75135668    121.79781 
   68000       730000   -56867.565    271.06777    4847.2011   -61714.766   -57566.232    250.21319   -189.98653    252157.23   0.75135668    123.55815 
   69000       740000   -56654.786    277.64224     4964.765   -61619.551   -56556.145    256.28185    26.823229    252157.23   0.75135668    125.34301 
   70000       750000   -56723.821    269.98314     4827.806   -61551.627   -57252.972    249.21201   -143.89045    252157.23   0.75135668    127.13569 
   71000       760000   -56716.423    278.65829     4982.934   -61699.357   -56230.425    257.21974     132.1559    252157.23   0.75135668    128.94893 
   72000       770000   -56669.009    268.17562    4795.4842   -61464.493   -57211.081    247.54356   -147.40415    252157.23   0.75135668    130.74535 
   73000       780000   -56724.948     274.1178    4901.7414    -61626.69   -57165.207    253.02857   -119.71831    252157.23   0.75135668     132.5454 
   74000       790000   -56558.319    276.00925    4935.5642   -61493.883   -56596.645    254.77451   -10.421833    252157.23   0.75135668    134.32359 
   75000       800000   -56709.837    275.83101    4932.3769   -61642.214   -57837.755    254.60998   -306.71155    252157.23   0.75135668    136.11875 
   76000       810000   -56803.055    269.07845    4811.6285   -61614.683    -56622.88    248.37693    48.994538    252157.23   0.75135668     137.8962 
   77000       820000   -56756.406    276.29362    4940.6492   -61697.055   -56644.015    255.03699    30.562246    252157.23   0.75135668    139.66944 
   78000       830000   -56673.835     275.5166    4926.7546    -61600.59   -56473.463    254.31975    54.486616    252157.23   0.75135668     141.4589 
   79000       840000   -56657.465    273.13739    4884.2098   -61541.675   -56429.697    252.12358    61.936278    252157.23   0.75135668     143.2665 
   80000       850000   -56625.987    275.27967    4922.5179   -61548.505   -56377.452    254.10105    67.583377    252157.23   0.75135668    145.07495 
   81000       860000   -56761.471    271.55451     4855.905   -61617.376   -57081.652    250.66249   -87.065782    252157.23   0.75135668    146.86816 
   82000       870000   -56565.786    277.99572     4971.086   -61536.872   -56270.486    256.60815    80.300219    252157.23   0.75135668     148.6727 
   83000       880000   -56602.913    279.34445    4995.2038   -61598.117   -56341.596    257.85311    71.059182    252157.23   0.75135668    150.47841 
   84000       890000   -56628.896    276.97574    4952.8468   -61581.743   -56883.022    255.66664   -69.103853    252157.23   0.75135668     152.2705 
   85000       900000   -56599.222    275.23414    4921.7037   -61520.926   -57080.452    254.05902   -130.85948    252157.23   0.75135668    154.08327 
   86000       910000   -56651.705     278.5937     4981.779   -61633.484    -56546.59    257.16012    28.583651    252157.23   0.75135668    155.88115 
   87000       920000   -56697.146    275.59685    4928.1897   -61625.336   -57378.677    254.39383   -185.32676    252157.23   0.75135668    157.69208 
   88000       930000   -56778.729    273.49441    4890.5941   -61669.323   -57391.864    252.45314   -166.72791    252157.23   0.75135668      159.489 
   89000       940000   -56631.303    278.32026    4976.8894   -61608.192   -56622.869    256.90772    2.2932662    252157.23   0.75135668    161.32728 
   90000       950000    -56751.64    273.89253    4897.7132   -61649.353   -56542.116    252.82063    56.975182    252157.23   0.75135668    163.11836 
   91000       960000   -56715.469    276.56282    4945.4629   -61660.932   -57126.359    255.28548   -111.73197    252157.23   0.75135668    164.90163 
   92000       970000   -56720.369    279.34823    4995.2714    -61715.64    -57089.74     257.8566   -100.44211    252157.23   0.75135668    166.72065 
   93000       980000   -56637.779    277.08088     4954.727   -61592.506   -57158.775    255.76369   -141.67292    252157.23   0.75135668     168.5054 
   94000       990000   -56521.644    276.57893     4945.751   -61467.395       -57010    255.30035    -132.7974    252157.23   0.75135668    170.29984 
   95000      1000000   -56726.615    274.46472    4907.9451    -61634.56   -56910.323    253.34881   -49.955157    252157.23   0.75135668    172.08639 
   96000      1010000   -56662.281     273.6223     4892.881   -61555.162   -58147.368    252.57119   -403.83562    252157.23   0.75135668    173.87618 
   97000      1020000   -56678.969    275.37968    4924.3063   -61603.275   -56145.243    254.19337     145.1346    252157.23   0.75135668    175.66532 
   98000      1030000   -56657.454    277.71879    4966.1339   -61623.588    -56787.89    256.35252   -35.469155    252157.23   0.75135668    177.45996 
   99000      1040000   -56792.984    273.49778    4890.6544   -61683.639   -56554.372    252.45625     64.88511    252157.23   0.75135668    179.23453 
  100000      1050000   -56689.247     273.6952    4894.1847   -61583.432    -56642.52    252.63849    12.706578    252157.23   0.75135668    181.03468 
Loop time of 181.035 on 16 procs for 100000 steps with 6500 atoms

Performance: 477.256 ns/day, 0.050 hours/ns, 552.380 timesteps/s
91.5% CPU use with 16 MPI tasks x no OpenMP threads

MPI task timing breakdown:
Section |  min time  |  avg time  |  max time  |%varavg| %total
---------------------------------------------------------------
Pair    | 136.26     | 140.51     | 145.35     |  19.4 | 77.61
Neigh   | 8.3746     | 8.6817     | 9.0003     |   5.5 |  4.80
Comm    | 24.326     | 29.486     | 33.776     |  44.8 | 16.29
Output  | 0.11637    | 0.11697    | 0.1256     |   0.7 |  0.06
Modify  | 1.7995     | 1.8657     | 1.9036     |   1.6 |  1.03
Other   |            | 0.3792     |            |       |  0.21

Nlocal:    406.25 ave 424 max 389 min
Histogram: 3 0 2 1 2 1 2 2 2 1
Nghost:    1706.38 ave 1733 max 1679 min
Histogram: 1 1 1 4 1 1 3 2 1 1
Neighs:    0 ave 0 max 0 min
Histogram: 16 0 0 0 0 0 0 0 0 0
FullNghs:  11974.1 ave 12451 max 11381 min
Histogram: 2 1 1 0 2 3 2 1 1 3

Total # of neighbors = 191586
Ave neighs/atom = 29.4748
Neighbor list builds = 10000
Dangerous builds = 10000



Total wall time: 0:03:27
